# Selection   : all
# Cells       : 400
# Volume      : 1.000000e+00
# Time        	max(p)
0             	0.000000e+00
10            	3.548031e-01
20            	5.358653e-01
30            	6.158890e-01
40            	6.586062e-01
50            	6.848030e-01
