/*--------------------------------*- C++ -*----------------------------------*\
  =========                 |
  \\      /  F ield         | OpenFOAM: The Open Source CFD Toolbox
   \\    /   O peration     | Website:  https://openfoam.org
    \\  /    A nd           | Version:  13
     \\/     M anipulation  |
\*---------------------------------------------------------------------------*/
FoamFile
{
    format      ascii;
    class       volScalarField;
    location    "30";
    object      p;
}
// * * * * * * * * * * * * * * * * * * * * * * * * * * * * * * * * * * * * * //

dimensions      [0 2 -2 0 0 0 0];

internalField   nonuniform List<scalar> 
400
(
-1.05554e-10
-0.000274569
-0.000490989
-0.000481173
-0.000173192
0.000441207
0.00134392
0.00250107
0.00386674
0.00538381
0.00698409
0.00858922
0.0101132
0.0114669
0.0125653
0.0133377
0.0137415
0.013782
0.0135528
0.0132671
0.000259545
-3.59391e-05
-0.000180676
-0.000135334
0.000168188
0.000745912
0.00158821
0.00266837
0.00394628
0.00536966
0.00687469
0.00838739
0.00982647
0.0111082
0.0121541
0.0129009
0.0133146
0.0134075
0.0132677
0.0129747
0.000470382
4.53069e-05
-0.000123336
-8.98761e-05
0.000198517
0.000753345
0.00156626
0.00261379
0.00385951
0.00525444
0.00673729
0.0082356
0.00966847
0.0109515
0.0120042
0.0127606
0.013183
0.0132766
0.0131161
0.0126955
0.000432526
-0.000115347
-0.000329844
-0.000323587
-5.28098e-05
0.000488656
0.00129207
0.00233613
0.0035875
0.00500001
0.00651399
0.00805678
0.009545
0.0108892
0.0120014
0.0128061
0.0132553
0.0133439
0.0131412
0.0125968
3.45514e-05
-0.000627112
-0.000893201
-0.000917272
-0.000658601
-0.000114793
0.000704876
0.00178083
0.00308244
0.00456588
0.0061723
0.00782731
0.00944246
0.0109192
0.0121566
0.0130632
0.0135745
0.0136729
0.0134277
0.0127642
-0.000793152
-0.00156866
-0.00188718
-0.00193834
-0.00168152
-0.00111685
-0.000253725
0.000890278
0.00228748
0.00389656
0.00565943
0.0074993
0.00932084
0.0110132
0.0124571
0.0135382
0.0141678
0.01431
0.014034
0.0132464
-0.0021175
-0.00301623
-0.00338793
-0.00346067
-0.00319345
-0.00258884
-0.00165584
-0.000409315
0.00112701
0.00291548
0.00489981
0.00700144
0.00911794
0.0111239
0.0128769
0.0142315
0.0150637
0.0153076
0.015025
0.0141016
-0.00401776
-0.00505703
-0.00548368
-0.00557174
-0.00528141
-0.00461866
-0.00359184
-0.00221188
-0.000496779
0.00152171
0.00379167
0.00623528
0.00874495
0.0111807
0.0133731
0.0151364
0.0162959
0.0167356
0.0164922
0.0154213
-0.00659568
-0.0077992
-0.0082827
-0.00837845
-0.00805147
-0.00731332
-0.00617157
-0.00463163
-0.00270328
-0.000409049
0.00220772
0.00507487
0.00808481
0.0110865
0.0138829
0.0162385
0.0179079
0.0186939
0.0185742
0.0173547
-0.00998492
-0.0113808
-0.0119203
-0.0120112
-0.0116302
-0.0107978
-0.00952084
-0.00779744
-0.00562615
-0.00301618
3.51486e-06
0.00337418
0.00699773
0.0107212
0.0143248
0.0175182
0.0199614
0.0213304
0.0214844
0.0201455
-0.0143633
-0.0159804
-0.0165654
-0.0166264
-0.0161623
-0.0152083
-0.0137706
-0.0118381
-0.00939518
-0.00643351
-0.00296076
0.000988794
0.00534077
0.00995768
0.014612
0.0189618
0.0225504
0.0248662
0.0255523
0.0241865
-0.0199719
-0.0218312
-0.0224283
-0.0224052
-0.021802
-0.0206762
-0.0190339
-0.0168532
-0.0141021
-0.0107508
-0.00677833
-0.00218158
0.00300915
0.00869903
0.0146829
0.020588
0.0258296
0.0296357
0.0312832
0.0301075
-0.0271478
-0.0292413
-0.0297656
-0.0295441
-0.0286905
-0.0272949
-0.0253643
-0.0228643
-0.0197457
-0.0159545
-0.0114336
-0.00612757
2.05603e-06
0.00694135
0.014557
0.0224943
0.0300566
0.0361409
0.0394439
0.0389093
-0.0363836
-0.0386234
-0.0388798
-0.0382271
-0.0369073
-0.0350575
-0.0326845
-0.0297402
-0.0261564
-0.0218512
-0.0167237
-0.0106506
-0.00349637
0.00485281
0.0144063
0.0249159
0.0356418
0.0451132
0.0511698
0.0521644
-0.0484396
-0.0505308
-0.0500926
-0.0485506
-0.0463693
-0.0437456
-0.0406794
-0.0370999
-0.0329114
-0.027995
-0.0221943
-0.0153013
-0.00705568
0.00283408
0.0146081
0.0282613
0.0431677
0.0575467
0.0680724
0.0723017
-0.0645706
-0.0656956
-0.0636448
-0.0603478
-0.0566352
-0.0527523
-0.0486552
-0.0442145
-0.0392773
-0.0336627
-0.0271386
-0.019395
-0.0100235
0.00148787
0.0157023
0.0330409
0.0532793
0.0745995
0.0922743
0.102968
-0.0869681
-0.0849739
-0.0793752
-0.0728024
-0.0665799
-0.0608618
-0.0554268
-0.0499845
-0.0442545
-0.0379489
-0.0307334
-0.0221805
-0.0117219
0.00139811
0.0181371
0.0395465
0.0662583
0.0971292
0.126203
0.149459
-0.121139
-0.109374
-0.0960143
-0.0838379
-0.0740806
-0.0661987
-0.0594394
-0.0531574
-0.0468487
-0.0400718
-0.0323741
-0.0232119
-0.0118675
0.00264867
0.0217043
0.0471377
0.0810249
0.12445
0.172033
0.220799
-0.186316
-0.138483
-0.109666
-0.0897928
-0.0765208
-0.0670514
-0.0596262
-0.0531115
-0.0467487
-0.0399569
-0.0321931
-0.0228351
-0.0110667
0.00426542
0.0248577
0.053302
0.0935275
0.151442
0.22914
0.343127
-0.359207
-0.177134
-0.113895
-0.0868229
-0.0719034
-0.062465
-0.0556698
-0.0499549
-0.0443822
-0.0383076
-0.0311755
-0.0223711
-0.011088
0.0038412
0.0241989
0.0530957
0.0963761
0.171216
0.313076
0.615889
)
;

boundaryField
{
    movingWall
    {
        type            zeroGradient;
    }
    fixedWalls
    {
        type            zeroGradient;
    }
    frontAndBack
    {
        type            empty;
    }
}


// ************************************************************************* //
