/*--------------------------------*- C++ -*----------------------------------*\
  =========                 |
  \\      /  F ield         | OpenFOAM: The Open Source CFD Toolbox
   \\    /   O peration     | Website:  https://openfoam.org
    \\  /    A nd           | Version:  13
     \\/     M anipulation  |
\*---------------------------------------------------------------------------*/
FoamFile
{
    format      ascii;
    class       surfaceScalarField;
    location    "30";
    object      phi;
}
// * * * * * * * * * * * * * * * * * * * * * * * * * * * * * * * * * * * * * //

dimensions      [0 3 -1 0 0 0 0];

internalField   nonuniform List<scalar> 
760
(
-2.88648e-05
2.88649e-05
-8.27562e-05
5.38913e-05
-0.000166536
8.37801e-05
-0.000264323
9.77861e-05
-0.000363299
9.89766e-05
-0.000454897
9.15979e-05
-0.000533254
7.83569e-05
-0.000594197
6.09428e-05
-0.000634632
4.04359e-05
-0.000652274
1.7642e-05
-0.000645609
-6.66427e-06
-0.000614053
-3.1556e-05
-0.000558236
-5.58168e-05
-0.000480424
-7.7812e-05
-0.000385052
-9.53717e-05
-0.00027939
-0.000105663
-0.000174313
-0.000105077
-8.51887e-05
-8.91246e-05
-2.97897e-05
-5.53994e-05
-2.979e-05
-5.52262e-05
8.4091e-05
-0.00013522
0.000133885
-0.00030013
0.000248689
-0.000507549
0.000305205
-0.000725974
0.000317402
-0.000933663
0.000299287
-0.0011154
0.000260089
-0.00125998
0.000205532
-0.00135873
0.00013918
-0.00140475
6.36682e-05
-0.00139309
-1.83238e-05
-0.00132132
-0.000103328
-0.0011906
-0.000186535
-0.0010071
-0.000261316
-0.000783572
-0.000318896
-0.000541052
-0.000348183
-0.000310213
-0.000335918
-0.000132106
-0.000267231
-5.56025e-05
-0.000131903
-8.53923e-05
-9.16366e-05
0.000175727
-0.000270512
0.00031276
-0.000536823
0.000515
-0.000844481
0.000612863
-0.0011576
0.000630517
-0.00144982
0.000591511
-0.00170204
0.000512307
-0.00190002
0.00040352
-0.00203288
0.000272037
-0.0020923
0.000123084
-0.00207255
-3.8074e-05
-0.00197115
-0.000204719
-0.00179
-0.000367684
-0.00153694
-0.000514382
-0.00122759
-0.000628245
-0.000887228
-0.000688547
-0.00055212
-0.000671024
-0.000269318
-0.000550034
-9.31136e-05
-0.000308107
-0.000178505
-0.000119125
0.000294853
-0.000369259
0.000562895
-0.000713643
0.000859385
-0.00109804
0.000997261
-0.00148234
0.00101482
-0.00183749
0.00094666
-0.00214237
0.000817182
-0.00238119
0.000642343
-0.0025418
0.000432641
-0.00261478
0.000196072
-0.00259348
-5.93792e-05
-0.00247458
-0.000323614
-0.00225946
-0.000582811
-0.001956
-0.00081784
-0.00158094
-0.0010033
-0.00116225
-0.00110724
-0.000741059
-0.00109222
-0.00037217
-0.000918923
-0.000122339
-0.000557937
-0.000300845
-0.000141603
0.000436456
-0.000448167
0.000869458
-0.000858739
0.00126996
-0.00130964
0.00144816
-0.00175588
0.00146106
-0.00216607
0.00135685
-0.00251789
0.001169
-0.00279475
0.000919209
-0.00298371
0.000621596
-0.00307433
0.00028669
-0.00305854
-7.51615e-05
-0.00293136
-0.000450799
-0.00269229
-0.000821881
-0.00234776
-0.00116237
-0.0019142
-0.00143687
-0.00142153
-0.00159991
-0.00091647
-0.00159728
-0.000464465
-0.00137093
-0.000148991
-0.00087341
-0.000449836
-0.00016359
0.000600046
-0.000521966
0.00122784
-0.000995922
0.00174391
-0.00151174
0.00196398
-0.00201907
0.00196839
-0.00248421
0.00182198
-0.00288403
0.00156882
-0.00320164
0.00123681
-0.00342357
0.000843528
-0.00353834
0.000401467
-0.00353606
-7.7442e-05
-0.00340909
-0.000577771
-0.0031537
-0.00107727
-0.00277313
-0.00154294
-0.00228184
-0.00192815
-0.00171084
-0.0021709
-0.00111313
-0.00219499
-0.00056768
-0.00191637
-0.000179281
-0.00126181
-0.000629117
-0.000188171
0.000788218
-0.000600752
0.00164042
-0.00114188
0.00228504
-0.00172667
0.00254877
-0.00229898
0.00254069
-0.00282292
0.00234592
-0.00327501
0.00202091
-0.00363855
0.00160036
-0.00390001
0.00110499
-0.00404698
0.00054843
-0.00406737
-5.7045e-05
-0.00395009
-0.000695054
-0.00368662
-0.00134074
-0.00327489
-0.00195467
-0.00272503
-0.00247802
-0.00206717
-0.00282876
-0.00136033
-0.00290183
-0.00069983
-0.00257688
-0.000218289
-0.00174335
-0.000847407
-0.000217589
0.00100581
-0.000691427
0.00211425
-0.00130771
0.00290133
-0.00196861
0.00320966
-0.00261168
0.00318377
-0.00319923
0.00293347
-0.00370817
0.00252985
-0.00412284
0.00201504
-0.00443038
0.00141252
-0.0046179
0.000735949
-0.00467118
-3.76321e-06
-0.00457507
-0.000791165
-0.00431472
-0.00160109
-0.00388017
-0.00238923
-0.00327368
-0.0030845
-0.00252085
-0.0035816
-0.00168449
-0.00373818
-0.000878126
-0.00338324
-0.000270899
-0.00235057
-0.0011183
-0.000253744
0.00125955
-0.000799016
0.00265953
-0.00150077
0.00360309
-0.00224568
0.00395456
-0.0029646
0.00390269
-0.00361874
0.00358761
-0.00418663
0.00309773
-0.00465495
0.00248337
-0.00501275
0.00177032
-0.00524775
0.000970946
-0.00534412
9.26142e-05
-0.00528276
-0.00085253
-0.00504119
-0.00184266
-0.00459875
-0.00283167
-0.00394514
-0.00373812
-0.0030952
-0.00443154
-0.00211002
-0.00472336
-0.00112057
-0.00437269
-0.000342387
-0.00312876
-0.00146069
-0.000298642
0.00155819
-0.000927742
0.00328863
-0.00172597
0.00440132
-0.00256125
0.00478984
-0.00335753
0.00469898
-0.00407623
0.00430631
-0.0046993
0.00372081
-0.00521775
0.00300181
-0.00562441
0.00217698
-0.00590941
0.00125595
-0.00605684
0.000240037
-0.00604456
-0.000864812
-0.00584215
-0.00204507
-0.0054158
-0.00325801
-0.00473713
-0.0044168
-0.00380128
-0.00536738
-0.00265695
-0.00586769
-0.00144594
-0.00558369
-0.000438668
-0.00413603
-0.00189936
-0.000354838
0.00191303
-0.00108188
0.00401567
-0.00198648
0.00530592
-0.00291395
0.0057173
-0.00378172
0.00556675
-0.00455366
0.00507825
-0.00521788
0.00438503
-0.0057724
0.00355633
-0.00621648
0.00262106
-0.00654528
0.00158475
-0.00674568
0.000440445
-0.00679439
-0.000816112
-0.00665462
-0.00218484
-0.00627844
-0.00363419
-0.00561417
-0.00508107
-0.00462604
-0.00635551
-0.00333309
-0.00716065
-0.00187099
-0.00704579
-0.00056606
-0.00544096
-0.00246542
-0.000426006
0.00233904
-0.00126651
0.00485617
-0.00228364
0.00632305
-0.00329596
0.00672962
-0.00421626
0.00648705
-0.00501476
0.00587676
-0.00568978
0.00506004
-0.00624995
0.00411649
-0.0067044
0.00307551
-0.00705678
0.00193713
-0.00730039
0.000684057
-0.00741476
-0.000701734
-0.00736039
-0.00223921
-0.00707709
-0.00391749
-0.00648724
-0.00567092
-0.0055127
-0.00733005
-0.00411912
-0.00855423
-0.00240342
-0.00876149
-0.000730538
-0.00711384
-0.00319596
-0.000517878
0.00285692
-0.00148834
0.00582663
-0.00261554
0.00745025
-0.00368819
0.00780228
-0.00461972
0.00741858
-0.0053937
0.00665074
-0.00602466
0.005691
-0.00653664
0.00462848
-0.00695265
0.00349153
-0.00728863
0.00227311
-0.0075488
0.000944223
-0.00772039
-0.000530148
-0.00776754
-0.00219206
-0.00762396
-0.00406107
-0.00718874
-0.00610614
-0.00633393
-0.00818486
-0.00494504
-0.00994313
-0.00302873
-0.0106778
-0.000936665
-0.00920591
-0.00413262
-0.00064002
0.00349694
-0.00175653
0.00694314
-0.00297263
0.00866635
-0.00404877
0.00887842
-0.00491215
0.00828196
-0.00557234
0.00731093
-0.00606927
0.00618792
-0.0064484
0.00500761
-0.00675054
0.00379367
-0.0070071
0.00252967
-0.00723676
0.00117389
-0.00743984
-0.000327068
-0.00759218
-0.00203972
-0.00763221
-0.00402104
-0.00744679
-0.00629157
-0.00686102
-0.00877063
-0.0056587
-0.0111454
-0.00368926
-0.0126472
-0.00118659
-0.0117086
-0.00531922
-0.000808966
0.0043059
-0.00208262
0.0082168
-0.003325
0.00990872
-0.00428526
0.00983868
-0.00493543
0.00893213
-0.00533431
0.0077098
-0.00556035
0.00641397
-0.00568635
0.00513361
-0.00577272
0.00388003
-0.00586646
0.00262342
-0.00600125
0.00130868
-0.00619412
-0.000134203
-0.00644037
-0.00179347
-0.006698
-0.00376341
-0.00686281
-0.00612675
-0.00673336
-0.00890008
-0.00598916
-0.0118896
-0.004254
-0.0143824
-0.00147812
-0.0144845
-0.00679734
-0.00105136
0.00535727
-0.00247581
0.00964124
-0.00358353
0.0110164
-0.00418237
0.0104375
-0.00436275
0.00911251
-0.00427094
0.007618
-0.00403687
0.00617989
-0.00376024
0.00485699
-0.00351515
0.00363494
-0.00335733
0.00246559
-0.00333024
0.00128159
-0.00346642
1.9727e-06
-0.00378592
-0.00147397
-0.00428229
-0.00326704
-0.00489139
-0.00551765
-0.00542979
-0.00836168
-0.00550729
-0.0118122
-0.0044776
-0.0154121
-0.00179062
-0.0171714
-0.00858796
-0.00140023
0.00675749
-0.00288898
0.01113
-0.00344529
0.0115727
-0.00318959
0.0101818
-0.00248118
0.00840409
-0.0015884
0.00672522
-0.000681026
0.00527252
0.000138007
0.00403796
0.000803928
0.00296902
0.00127067
0.00199885
0.00149795
0.00105431
0.00144479
5.51417e-05
0.00106595
-0.00109513
0.000319086
-0.00252017
-0.000808895
-0.00438967
-0.00222642
-0.00694415
-0.00357099
-0.0104676
-0.00394363
-0.0150394
-0.00202258
-0.0190925
-0.0106105
-0.00182
0.00857749
-0.00293179
0.0122418
-0.00180923
0.0104502
0.000178081
0.00819452
0.00229841
0.00628376
0.00425744
0.00476619
0.00594415
0.00358581
0.0073218
0.00266031
0.00837979
0.00191103
0.00910983
0.00126881
0.0094926
0.000671532
0.00948964
5.81046e-05
0.00903538
-0.000640869
0.00803254
-0.00151734
0.00635663
-0.00271376
0.00390367
-0.00449118
0.000795213
-0.00735912
-0.00202127
-0.012223
-0.0019093
-0.0192045
-0.0125198
-0.00253134
0.0111088
0.000314252
0.00939619
0.00535384
0.0054106
0.00975115
0.00379721
0.0132926
0.0027423
0.0160594
0.00199938
0.0181793
0.00146592
0.0197657
0.00107389
0.0209007
0.000776042
0.0216307
0.000538831
0.0219658
0.000336467
0.021877
0.000146858
0.0212884
-5.22825e-05
0.0200605
-0.000289417
0.0179576
-0.000610857
0.0146019
-0.00113549
0.00949071
-0.00224793
0.00261636
-0.00534862
-0.00253838
-0.0140497
-0.0150582
0.0111088
0.020505
0.0259156
0.0297128
0.0324551
0.0344545
0.0359204
0.0369943
0.0377704
0.0383092
0.0386457
0.0387925
0.0387402
0.0384508
0.03784
0.0367045
0.0344565
0.0291079
0.0150582
)
;

boundaryField
{
    movingWall
    {
        type            calculated;
        value           uniform 0;
    }
    fixedWalls
    {
        type            calculated;
        value           uniform 0;
    }
    frontAndBack
    {
        type            empty;
    }
}


// ************************************************************************* //
