/*--------------------------------*- C++ -*----------------------------------*\
  =========                 |
  \\      /  F ield         | OpenFOAM: The Open Source CFD Toolbox
   \\    /   O peration     | Website:  https://openfoam.org
    \\  /    A nd           | Version:  13
     \\/     M anipulation  |
\*---------------------------------------------------------------------------*/
FoamFile
{
    format      ascii;
    class       surfaceScalarField;
    location    "30";
    object      phi_0;
}
// * * * * * * * * * * * * * * * * * * * * * * * * * * * * * * * * * * * * * //

dimensions      [0 3 -1 0 0 0 0];

internalField   nonuniform List<scalar> 
760
(
-3.51446e-05
3.51446e-05
-9.97654e-05
6.46209e-05
-0.000185245
8.54793e-05
-0.000273819
8.85741e-05
-0.000357152
8.33332e-05
-0.00043042
7.32678e-05
-0.000490544
6.0124e-05
-0.000535421
4.48763e-05
-0.000563584
2.81638e-05
-0.000574071
1.04866e-05
-0.000566378
-7.69288e-06
-0.00054049
-2.58877e-05
-0.000496952
-4.3538e-05
-0.000436994
-5.99572e-05
-0.000362742
-7.42527e-05
-0.000277575
-8.51672e-05
-0.000186884
-9.06904e-05
-9.98311e-05
-8.70532e-05
-3.56765e-05
-6.41547e-05
-3.56765e-05
-6.11822e-05
9.63268e-05
-0.000172976
0.000176414
-0.000357953
0.000270456
-0.000568176
0.000298797
-0.000775775
0.000290932
-0.000964247
0.000261739
-0.00112311
0.000218991
-0.00124519
0.000166957
-0.0013253
0.000108266
-0.00135967
4.48618e-05
-0.0013459
-2.14652e-05
-0.00128306
-8.87274e-05
-0.00117214
-0.00015446
-0.00101667
-0.000215428
-0.000823694
-0.000267224
-0.000605307
-0.000303554
-0.00038125
-0.000314748
-0.000183707
-0.000284596
-6.47623e-05
-0.0001831
-0.000100439
-9.01779e-05
0.000186505
-0.000287772
0.000374008
-0.000547546
0.000530231
-0.000826198
0.000577449
-0.00109566
0.000560391
-0.00133766
0.000503739
-0.00153993
0.000421262
-0.00169392
0.00032095
-0.00179355
0.00020789
-0.00183455
8.58674e-05
-0.00181435
-4.16623e-05
-0.00173217
-0.000170907
-0.00158946
-0.000297172
-0.0013906
-0.000414286
-0.00114397
-0.000513855
-0.000863431
-0.000584096
-0.000570525
-0.000607655
-0.00029779
-0.000557331
-9.33879e-05
-0.000387502
-0.000193827
-0.0001059
0.000292404
-0.000356589
0.000624698
-0.000669362
0.000843004
-0.00099715
0.000905237
-0.00131044
0.000873683
-0.00159001
0.000783308
-0.00182285
0.000654099
-0.00199985
0.000497951
-0.00211451
0.000322548
-0.00216224
0.000133601
-0.00214016
-6.37429e-05
-0.0020472
-0.00026387
-0.00188458
-0.000459794
-0.00165663
-0.000642235
-0.001372
-0.000798481
-0.00104534
-0.000910756
-0.000699658
-0.000953339
-0.000370004
-0.000886985
-0.000110096
-0.000647409
-0.000303923
-0.000119395
0.000411799
-0.0004116
0.000916904
-0.000770616
0.00120202
-0.00114287
0.00127749
-0.00149604
0.00122686
-0.00180975
0.00109701
-0.00207054
0.000914893
-0.00226916
0.000696572
-0.00239898
0.000452367
-0.00245517
0.000189794
-0.0024344
-8.45126e-05
-0.00233493
-0.000363341
-0.00215715
-0.000637572
-0.00190461
-0.000894781
-0.00158551
-0.00111758
-0.00121491
-0.00128135
-0.000817796
-0.00135046
-0.000433779
-0.001271
-0.000125754
-0.000955435
-0.000429676
-0.000134532
0.00054633
-0.000468661
0.00125103
-0.000876376
0.00160973
-0.00129625
0.00169737
-0.00169225
0.00162285
-0.00204256
0.00144732
-0.00233346
0.00120579
-0.00255584
0.000918946
-0.0027032
0.000599724
-0.00277058
0.000257181
-0.0027541
-0.000100994
-0.00265096
-0.000466479
-0.00246011
-0.000828424
-0.00218349
-0.0011714
-0.0018281
-0.00147298
-0.00140896
-0.00170049
-0.000953358
-0.00180605
-0.000507033
-0.00171732
-0.000144612
-0.00131786
-0.000574288
-0.000153298
0.000699628
-0.000536477
0.00163421
-0.00100102
0.00207428
-0.00147612
0.00217247
-0.0019213
0.00206803
-0.00231325
0.00183928
-0.00263828
0.00153083
-0.00288786
0.00116852
-0.00305603
0.000767896
-0.00313794
0.000339087
-0.00312908
-0.000109849
-0.00302527
-0.00057029
-0.00282328
-0.00103042
-0.00252241
-0.00147227
-0.00212726
-0.00186812
-0.00165187
-0.00217588
-0.00112563
-0.0023323
-0.000601603
-0.00224135
-0.000169317
-0.00175014
-0.000743605
-0.000177112
0.00087674
-0.000620877
0.00207798
-0.00115418
0.00260758
-0.00169469
0.00271297
-0.00219682
0.00257016
-0.00263601
0.00227847
-0.00299923
0.00189405
-0.00327928
0.00144858
-0.00347142
0.000960029
-0.00357132
0.000438991
-0.00357404
-0.000107132
-0.00347367
-0.000670662
-0.00326398
-0.00124011
-0.00294029
-0.00179597
-0.00250294
-0.00230547
-0.00196308
-0.00271574
-0.00135103
-0.00294435
-0.000727925
-0.00286445
-0.00020226
-0.00227581
-0.000945865
-0.000207414
0.00108415
-0.000726999
0.00259756
-0.00134387
0.00322445
-0.00196127
0.00333037
-0.00252798
0.00313687
-0.00301885
0.00276934
-0.00342266
0.00229786
-0.00373479
0.0017607
-0.00395275
0.00117799
-0.00407359
0.000559833
-0.0040923
-8.84212e-05
-0.00400116
-0.000761808
-0.0037901
-0.00145117
-0.00344868
-0.00213739
-0.00297034
-0.00278381
-0.00236004
-0.00332604
-0.00164619
-0.0036582
-0.000897533
-0.0036131
-0.000246236
-0.00292711
-0.0011921
-0.000246013
0.00133017
-0.000860508
0.00321206
-0.00157805
0.003942
-0.0022838
0.00403611
-0.00292068
0.00377375
-0.00346437
0.00331304
-0.00390742
0.00274091
-0.0042496
0.00210288
-0.00449232
0.00142072
-0.00463527
0.00070278
-0.00467422
-4.94758e-05
-0.00459984
-0.000836184
-0.0043976
-0.00165341
-0.00404937
-0.00248562
-0.00353814
-0.00329505
-0.00285756
-0.00400662
-0.00202853
-0.00448723
-0.00112423
-0.0045174
-0.000304826
-0.00374651
-0.00149693
-0.000295432
0.0016256
-0.00102839
0.00394501
-0.00186524
0.00477886
-0.00266864
0.00483951
-0.00337636
0.00448147
-0.00396759
0.00390426
-0.0044416
0.00321492
-0.00480533
0.00246661
-0.00506636
0.00168175
-0.00522881
0.000865235
-0.00529064
1.23488e-05
-0.00524173
-0.000885094
-0.00506294
-0.0018322
-0.00472678
-0.00282177
-0.00420166
-0.00382016
-0.00346276
-0.00474552
-0.00251379
-0.00543619
-0.00142391
-0.00560729
-0.000382626
-0.0047878
-0.00187955
-0.00035939
0.00198499
-0.00123948
0.00482511
-0.00221397
0.00575335
-0.00311824
0.00574378
-0.00388758
0.00525081
-0.00450945
0.00452613
-0.00499454
0.00370001
-0.00536074
0.00283281
-0.00562477
0.00194578
-0.00579751
0.00103798
-0.00588099
9.5827e-05
-0.00586585
-0.00090024
-0.00572922
-0.00196883
-0.00543363
-0.00311736
-0.00492917
-0.00432462
-0.00416367
-0.00551102
-0.00310883
-0.00649104
-0.00181213
-0.00690399
-0.000485329
-0.00611459
-0.00236488
-0.00044367
0.00242866
-0.00150463
0.00588607
-0.00263012
0.00687883
-0.00362446
0.00673812
-0.00442738
0.00605373
-0.00504311
0.00514186
-0.00550079
0.00415769
-0.00583434
0.00316635
-0.006073
0.00218444
-0.00623686
0.00120184
-0.00633403
0.000193003
-0.00635812
-0.000876156
-0.00628486
-0.00204208
-0.00606836
-0.00333386
-0.00563889
-0.00475409
-0.00490841
-0.00624151
-0.00379652
-0.00760293
-0.00229755
-0.00840296
-0.000619722
-0.00779242
-0.0029846
-0.00055788
0.00298654
-0.00183558
0.00716377
-0.00310909
0.00815235
-0.00415253
0.00778156
-0.0049261
0.00682731
-0.00546575
0.0056815
-0.00582946
0.00452141
-0.00607309
0.00340997
-0.00624124
0.0023526
-0.0063645
0.0013251
-0.0064584
0.000286903
-0.00652177
-0.000812781
-0.00653288
-0.00203098
-0.00644247
-0.00342427
-0.00616467
-0.00503188
-0.00557156
-0.00683462
-0.00450873
-0.00866576
-0.00286821
-0.0100435
-0.000793964
-0.00986666
-0.00377857
-0.000718626
0.00370516
-0.00223992
0.00868506
-0.00361487
0.00952729
-0.00460287
0.00876956
-0.00522089
0.00744533
-0.00556234
0.00602296
-0.00572738
0.00468644
-0.00579791
0.00348051
-0.00583335
0.00238803
-0.00587279
0.00136454
-0.00593809
0.000352201
-0.0060347
-0.000716175
-0.00614845
-0.00191722
-0.0062362
-0.00333652
-0.00620837
-0.00505971
-0.00590506
-0.00713792
-0.00508309
-0.00948774
-0.00346666
-0.0116599
-0.00101876
-0.0123146
-0.00479732
-0.000951646
0.00465681
-0.00270278
0.0104362
-0.00402119
0.0108457
-0.00471774
0.00946612
-0.00494663
0.00767422
-0.00489651
0.00597284
-0.00471782
0.00450775
-0.00451254
0.00327523
-0.00434519
0.00222068
-0.00425495
0.0012743
-0.00426493
0.000362178
-0.00438664
-0.000594472
-0.00461888
-0.00168498
-0.00493827
-0.00301713
-0.00527574
-0.00472225
-0.00546967
-0.00694399
-0.00519958
-0.00975783
-0.00395122
-0.0129083
-0.00130703
-0.0149588
-0.00610435
-0.00127821
0.00593502
-0.00311089
0.0122689
-0.00392953
0.0116643
-0.00384705
0.00938365
-0.00330674
0.0071339
-0.00261103
0.00527713
-0.00193304
0.00382976
-0.00136154
0.00270373
-0.000940989
0.00180013
-0.000694086
0.0010274
-0.000636378
0.000304471
-0.000783349
-0.000447501
-0.00115219
-0.00131613
-0.0017555
-0.00241382
-0.00258128
-0.00389646
-0.00353072
-0.00599456
-0.00428188
-0.00900666
-0.00404407
-0.0131461
-0.0016565
-0.0173463
-0.00776085
-0.00181704
0.00775206
-0.00305521
0.013507
-0.00212111
0.0107302
-0.000396333
0.00765886
0.00136118
0.00537639
0.00289229
0.00374601
0.00412704
0.00259501
0.00506046
0.00177031
0.00570846
0.00115214
0.00608301
0.000652849
0.00618389
0.00020359
0.00599273
-0.000256347
0.00546849
-0.000791889
0.00454213
-0.00148746
0.00312405
-0.00247838
0.00113936
-0.00400987
-0.00130226
-0.00656503
-0.00330658
-0.0111418
-0.0021755
-0.0184774
-0.00993635
-0.00301378
0.0107658
0.000480751
0.0100125
0.00545147
0.00575952
0.00928372
0.00382662
0.0121525
0.00250763
0.0142696
0.00162888
0.0158001
0.00106455
0.0168695
0.000700926
0.0175644
0.000457169
0.0179353
0.000281965
0.0179961
0.000142768
0.0177228
1.70135e-05
0.0170454
-0.000114548
0.0158329
-0.000274886
0.0138594
-0.000504961
0.0107658
-0.000916201
0.00601131
-0.00181058
-0.000518744
-0.00461172
-0.00469697
-0.0142992
-0.0146333
0.0107658
0.0207784
0.0265379
0.0303645
0.0328721
0.034501
0.0355656
0.0362665
0.0367236
0.0370056
0.0371484
0.0371654
0.0370508
0.036776
0.036271
0.0353548
0.0335442
0.0289325
0.0146333
)
;

boundaryField
{
    movingWall
    {
        type            calculated;
        value           uniform 0;
    }
    fixedWalls
    {
        type            calculated;
        value           uniform 0;
    }
    frontAndBack
    {
        type            empty;
    }
}


// ************************************************************************* //
