/*--------------------------------*- C++ -*----------------------------------*\
  =========                 |
  \\      /  F ield         | OpenFOAM: The Open Source CFD Toolbox
   \\    /   O peration     | Website:  https://openfoam.org
    \\  /    A nd           | Version:  13
     \\/     M anipulation  |
\*---------------------------------------------------------------------------*/
FoamFile
{
    format      ascii;
    class       volVectorField;
    location    "30";
    object      U;
}
// * * * * * * * * * * * * * * * * * * * * * * * * * * * * * * * * * * * * * //

dimensions      [0 1 -1 0 0 0 0];

internalField   nonuniform List<vector> 
400
(
(-0.000210575 0.000218049 0)
(-0.00104748 0.000524571 0)
(-0.00250654 0.000752413 0)
(-0.00438535 0.00088973 0)
(-0.00640356 0.000918007 0)
(-0.00834363 0.000864004 0)
(-0.0100657 0.000747362 0)
(-0.0114721 0.000583201 0)
(-0.0124925 0.000383119 0)
(-0.0130747 0.000156896 0)
(-0.013182 -8.56484e-05 0)
(-0.0127941 -0.000333035 0)
(-0.0119117 -0.000570801 0)
(-0.0105628 -0.000780558 0)
(-0.00881205 -0.000939576 0)
(-0.0067725 -0.00102131 0)
(-0.00461924 -0.000997412 0)
(-0.00261588 -0.00083892 0)
(-0.0010831 -0.00056494 0)
(-0.000227831 -0.000221839 0)
(-0.00053769 0.00104951 0)
(-0.00155494 0.00151685 0)
(-0.00460233 0.00281739 0)
(-0.00853272 0.00345886 0)
(-0.0129651 0.00359255 0)
(-0.0173442 0.00338706 0)
(-0.0213151 0.00294937 0)
(-0.0246208 0.0023439 0)
(-0.0270694 0.00160974 0)
(-0.0285124 0.000775239 0)
(-0.0288377 -0.000130934 0)
(-0.0279762 -0.00107168 0)
(-0.0259179 -0.00199529 0)
(-0.0227341 -0.00283023 0)
(-0.018607 -0.00348104 0)
(-0.0138609 -0.00382499 0)
(-0.0089867 -0.00371075 0)
(-0.00470527 -0.00295956 0)
(-0.00151356 -0.00146006 0)
(-0.00058518 -0.00106128 0)
(-0.000850231 0.00257095 0)
(-0.00307625 0.0045961 0)
(-0.0083106 0.00768731 0)
(-0.0142946 0.00919432 0)
(-0.0207258 0.00947307 0)
(-0.0269346 0.00888698 0)
(-0.0324839 0.00768955 0)
(-0.037047 0.00604438 0)
(-0.0403809 0.00405784 0)
(-0.0423018 0.00181092 0)
(-0.0426767 -0.000614975 0)
(-0.0414293 -0.00311776 0)
(-0.0385562 -0.00555872 0)
(-0.0341529 -0.00774964 0)
(-0.0284463 -0.00944378 0)
(-0.0218319 -0.0103322 0)
(-0.0148949 -0.0100512 0)
(-0.00849104 -0.00821101 0)
(-0.00306592 -0.00455585 0)
(-0.000912003 -0.00261158 0)
(-0.00112467 0.00470968 0)
(-0.00418118 0.0090018 0)
(-0.0110909 0.0138901 0)
(-0.0186553 0.016187 0)
(-0.0266046 0.0164962 0)
(-0.0341828 0.0153861 0)
(-0.0409074 0.0132614 0)
(-0.0464164 0.0103887 0)
(-0.0504396 0.00694532 0)
(-0.0527713 0.0030678 0)
(-0.0532598 -0.00110763 0)
(-0.0518123 -0.00541185 0)
(-0.0484131 -0.00961547 0)
(-0.0431533 -0.0134066 0)
(-0.0362712 -0.0163754 0)
(-0.0281989 -0.0180092 0)
(-0.0195923 -0.0177092 0)
(-0.0114432 -0.0148465 0)
(-0.00422463 -0.00896858 0)
(-0.00121919 -0.00480149 0)
(-0.00136407 0.00733463 0)
(-0.00505302 0.0146481 0)
(-0.0133736 0.0215086 0)
(-0.0223025 0.0245917 0)
(-0.0315737 0.0248323 0)
(-0.040346 0.023046 0)
(-0.0481046 0.0198083 0)
(-0.0544688 0.015498 0)
(-0.0591543 0.0103667 0)
(-0.0619393 0.00460635 0)
(-0.0626501 -0.00159376 0)
(-0.0611651 -0.00799843 0)
(-0.0574343 -0.0142852 0)
(-0.0515164 -0.0200085 0)
(-0.043631 -0.0245726 0)
(-0.0342241 -0.0272228 0)
(-0.0240197 -0.0270681 0)
(-0.014175 -0.0231612 0)
(-0.0052564 -0.0147504 0)
(-0.00152142 -0.00753681 0)
(-0.00159999 0.0103901 0)
(-0.00587202 0.0213375 0)
(-0.0155405 0.0303786 0)
(-0.0257987 0.0342668 0)
(-0.0363714 0.0343562 0)
(-0.0463281 0.0317644 0)
(-0.0551276 0.0272637 0)
(-0.0623803 0.021354 0)
(-0.0677965 0.01436 0)
(-0.0711421 0.00652144 0)
(-0.0722171 -0.00192981 0)
(-0.0708576 -0.010703 0)
(-0.0669569 -0.0193888 0)
(-0.0605098 -0.0274024 0)
(-0.0516834 -0.0339384 0)
(-0.0409106 -0.037948 0)
(-0.0289789 -0.0381624 0)
(-0.0172434 -0.0331998 0)
(-0.0064211 -0.0218796 0)
(-0.00186739 -0.0108252 0)
(-0.00185691 0.0139025 0)
(-0.00675957 0.0290674 0)
(-0.0178638 0.0405319 0)
(-0.0295405 0.0452582 0)
(-0.0415012 0.045117 0)
(-0.0527214 0.0415931 0)
(-0.0626408 0.035689 0)
(-0.070872 0.0280365 0)
(-0.0771309 0.0190293 0)
(-0.081177 0.00894211 0)
(-0.0827831 -0.00196965 0)
(-0.0817317 -0.0133799 0)
(-0.0778358 -0.0248087 0)
(-0.0709907 -0.0355352 0)
(-0.0612658 -0.0445201 0)
(-0.0490371 -0.0503557 0)
(-0.0351306 -0.0512781 0)
(-0.0211214 -0.0453033 0)
(-0.00793717 -0.0306427 0)
(-0.00229839 -0.0147929 0)
(-0.00215585 0.0179489 0)
(-0.00779937 0.037942 0)
(-0.020532 0.0520962 0)
(-0.0337926 0.0576869 0)
(-0.0472799 0.0572185 0)
(-0.0598718 0.0526222 0)
(-0.0710021 0.0451715 0)
(-0.0803036 0.0356427 0)
(-0.0875149 0.0244928 0)
(-0.0924025 0.0120125 0)
(-0.0947172 -0.00154649 0)
(-0.0941833 -0.0158548 0)
(-0.090513 -0.0303932 0)
(-0.0834615 -0.0443223 0)
(-0.0729408 -0.0563556 0)
(-0.0591976 -0.0646562 0)
(-0.0430357 -0.066815 0)
(-0.0262429 -0.0600099 0)
(-0.0100201 -0.0415653 0)
(-0.00285175 -0.0196624 0)
(-0.00251653 0.0226463 0)
(-0.00905632 0.0481416 0)
(-0.0236823 0.0652635 0)
(-0.038728 0.0717118 0)
(-0.0538834 0.0707761 0)
(-0.067929 0.0649332 0)
(-0.0803158 0.0557769 0)
(-0.0907248 0.0442433 0)
(-0.0989447 0.0308452 0)
(-0.104773 0.0158658 0)
(-0.107956 -0.000483204 0)
(-0.108165 -0.0179151 0)
(-0.105002 -0.0359222 0)
(-0.0980405 -0.0535896 0)
(-0.0869629 -0.069395 0)
(-0.0717805 -0.0810145 0)
(-0.0531568 -0.0852189 0)
(-0.0330253 -0.0780227 0)
(-0.0129087 -0.05542 0)
(-0.00355934 -0.025756 0)
(-0.00296057 0.0281499 0)
(-0.0105925 0.0598994 0)
(-0.0274266 0.0802569 0)
(-0.044455 0.0874865 0)
(-0.0613698 0.0858651 0)
(-0.076862 0.0785416 0)
(-0.0904377 0.0674907 0)
(-0.101867 0.0538261 0)
(-0.111031 0.0381073 0)
(-0.117796 0.0205835 0)
(-0.121936 0.00138329 0)
(-0.123095 -0.0193127 0)
(-0.120767 -0.0410802 0)
(-0.114322 -0.0630086 0)
(-0.103135 -0.0833981 0)
(-0.0868414 -0.0994221 0)
(-0.0657743 -0.106859 0)
(-0.0418388 -0.100139 0)
(-0.0168746 -0.0732347 0)
(-0.00444213 -0.0335076 0)
(-0.00351624 0.0346596 0)
(-0.0124823 0.0734895 0)
(-0.0318696 0.0972991 0)
(-0.0510266 0.105109 0)
(-0.0696708 0.102457 0)
(-0.0864288 0.0933268 0)
(-0.100921 0.0801452 0)
(-0.113069 0.0642234 0)
(-0.122902 0.0461585 0)
(-0.130407 0.0261359 0)
(-0.135441 0.00415223 0)
(-0.137667 -0.0197891 0)
(-0.136506 -0.0454465 0)
(-0.131126 -0.0720381 0)
(-0.120537 -0.0978146 0)
(-0.103845 -0.119519 0)
(-0.080782 -0.131826 0)
(-0.0528912 -0.127103 0)
(-0.0222042 -0.0962748 0)
(-0.00549878 -0.0434737 0)
(-0.00422578 0.0424369 0)
(-0.01483 0.0892217 0)
(-0.0371205 0.116573 0)
(-0.0584249 0.124551 0)
(-0.0785372 0.120331 0)
(-0.096081 0.108934 0)
(-0.110887 0.0933214 0)
(-0.123114 0.07502 0)
(-0.133013 0.0546507 0)
(-0.140763 0.0323045 0)
(-0.146371 0.0077968 0)
(-0.149591 -0.0191221 0)
(-0.149842 -0.0485103 0)
(-0.146144 -0.0798828 0)
(-0.137136 -0.111658 0)
(-0.121262 -0.140364 0)
(-0.0973315 -0.159626 0)
(-0.065991 -0.159319 0)
(-0.0291366 -0.125937 0)
(-0.00668593 -0.0563351 0)
(-0.00515824 0.0518362 0)
(-0.0177966 0.107437 0)
(-0.0432942 0.138152 0)
(-0.0664995 0.145539 0)
(-0.0874011 0.138929 0)
(-0.104755 0.124629 0)
(-0.118761 0.106218 0)
(-0.129935 0.0854383 0)
(-0.138841 0.0629113 0)
(-0.145927 0.0385987 0)
(-0.151425 0.0120887 0)
(-0.155268 -0.017191 0)
(-0.15698 -0.0497141 0)
(-0.155551 -0.0854877 0)
(-0.14933 -0.123404 0)
(-0.136059 -0.160179 0)
(-0.113322 -0.188748 0)
(-0.0801514 -0.196358 0)
(-0.0377386 -0.163457 0)
(-0.0078878 -0.0728745 0)
(-0.0064328 0.0633615 0)
(-0.0216468 0.12849 0)
(-0.0504849 0.161863 0)
(-0.0748059 0.167337 0)
(-0.0950636 0.157124 0)
(-0.110444 0.139092 0)
(-0.121774 0.117484 0)
(-0.130094 0.0942163 0)
(-0.136376 0.0698568 0)
(-0.141399 0.0441893 0)
(-0.145679 0.0165351 0)
(-0.149406 -0.0140439 0)
(-0.152336 -0.0485256 0)
(-0.153607 -0.0875898 0)
(-0.151485 -0.130958 0)
(-0.143141 -0.176137 0)
(-0.12478 -0.21617 0)
(-0.0930239 -0.236203 0)
(-0.0476888 -0.209276 0)
(-0.00886529 -0.0939253 0)
(-0.00825357 0.0777836 0)
(-0.0268239 0.152743 0)
(-0.0586496 0.18701 0)
(-0.0821773 0.188341 0)
(-0.0989774 0.172821 0)
(-0.1093 0.15011 0)
(-0.11501 0.125025 0)
(-0.117858 0.0995129 0)
(-0.119284 0.0739608 0)
(-0.120394 0.0479037 0)
(-0.121985 0.02037 0)
(-0.124537 -0.00994408 0)
(-0.12814 -0.0445342 0)
(-0.1323 -0.0848524 0)
(-0.135541 -0.131766 0)
(-0.134842 -0.184304 0)
(-0.125213 -0.236916 0)
(-0.100189 -0.274287 0)
(-0.0579166 -0.261912 0)
(-0.00913795 -0.12029 0)
(-0.0108943 0.0962944 0)
(-0.0340434 0.180244 0)
(-0.0671765 0.211606 0)
(-0.0855263 0.205242 0)
(-0.0935179 0.182343 0)
(-0.0937317 0.154239 0)
(-0.0895711 0.125908 0)
(-0.0835699 0.0989536 0)
(-0.0775239 0.0733667 0)
(-0.0727146 0.0483427 0)
(-0.0700852 0.0226259 0)
(-0.0703357 -0.00537686 0)
(-0.0739307 -0.037568 0)
(-0.080947 -0.0761042 0)
(-0.0906277 -0.123132 0)
(-0.100457 -0.179869 0)
(-0.104981 -0.243862 0)
(-0.0943457 -0.302471 0)
(-0.0658991 -0.316223 0)
(-0.00758937 -0.152622 0)
(-0.0148318 0.121605 0)
(-0.0439223 0.211141 0)
(-0.0726058 0.231038 0)
(-0.0758749 0.211723 0)
(-0.0655106 0.179751 0)
(-0.0482797 0.146732 0)
(-0.0291207 0.116622 0)
(-0.01087 0.0900394 0)
(0.0048344 0.0663076 0)
(0.0169578 0.0442374 0)
(0.0247221 0.0223799 0)
(0.0274058 -0.000954682 0)
(0.0242393 -0.0277983 0)
(0.0144377 -0.0606836 0)
(-0.00246622 -0.10279 0)
(-0.0255176 -0.15778 0)
(-0.0504238 -0.228006 0)
(-0.0642813 -0.308389 0)
(-0.0660672 -0.36213 0)
(-0.0012767 -0.191806 0)
(-0.0186011 0.160951 0)
(-0.054287 0.242898 0)
(-0.0587844 0.234193 0)
(-0.0256645 0.196645 0)
(0.0167247 0.157327 0)
(0.0587311 0.122994 0)
(0.096188 0.0946976 0)
(0.127646 0.0715568 0)
(0.152731 0.0522107 0)
(0.171341 0.0352374 0)
(0.183295 0.0192259 0)
(0.188123 0.00269949 0)
(0.184908 -0.0160674 0)
(0.172164 -0.0393504 0)
(0.1478 -0.0705 0)
(0.109869 -0.114862 0)
(0.0581742 -0.180203 0)
(0.00643883 -0.274784 0)
(-0.048302 -0.381161 0)
(0.0186068 -0.241088 0)
(-0.0175855 0.216164 0)
(-0.0391584 0.250535 0)
(0.0512049 0.177568 0)
(0.145089 0.131311 0)
(0.224655 0.0970907 0)
(0.287946 0.0717888 0)
(0.33716 0.0531281 0)
(0.374646 0.039171 0)
(0.402377 0.0283975 0)
(0.421666 0.0196325 0)
(0.433135 0.0119202 0)
(0.436692 0.00439899 0)
(0.431431 -0.00384305 0)
(0.41541 -0.0140156 0)
(0.385065 -0.0280654 0)
(0.334935 -0.0505584 0)
(0.25511 -0.0927838 0)
(0.150673 -0.188011 0)
(-0.0140261 -0.381064 0)
(0.0675293 -0.292571 0)
(0.250947 0.10757 0)
(0.323916 0.103172 0)
(0.462337 0.0684414 0)
(0.558435 0.0508076 0)
(0.623322 0.0387307 0)
(0.669967 0.0297675 0)
(0.704117 0.0229046 0)
(0.729215 0.0175815 0)
(0.747551 0.0133999 0)
(0.760642 0.0100584 0)
(0.769429 0.00731555 0)
(0.774394 0.00496708 0)
(0.775581 0.00282426 0)
(0.772583 0.000702045 0)
(0.764065 -0.00171 0)
(0.747775 -0.00454781 0)
(0.713535 -0.010344 0)
(0.651941 -0.0179319 0)
(0.488812 -0.0570864 0)
(0.328 -0.114008 0)
)
;

boundaryField
{
    movingWall
    {
        type            fixedValue;
        value           uniform (1 0 0);
    }
    fixedWalls
    {
        type            fixedValue;
        value           uniform (0 0 0);
    }
    frontAndBack
    {
        type            empty;
    }
}


// ************************************************************************* //
