/*--------------------------------*- C++ -*----------------------------------*\
  =========                 |
  \\      /  F ield         | OpenFOAM: The Open Source CFD Toolbox
   \\    /   O peration     | Website:  https://openfoam.org
    \\  /    A nd           | Version:  13
     \\/     M anipulation  |
\*---------------------------------------------------------------------------*/
FoamFile
{
    format      ascii;
    class       volScalarField;
    location    "40";
    object      p;
}
// * * * * * * * * * * * * * * * * * * * * * * * * * * * * * * * * * * * * * //

dimensions      [0 2 -2 0 0 0 0];

internalField   nonuniform List<scalar> 
400
(
4.1956e-10
-0.000305741
-0.000637811
-0.000790702
-0.000674694
-0.000269752
0.000415321
0.0013552
0.00251138
0.00383137
0.00524732
0.00667612
0.00802258
0.00918632
0.0100731
0.0106106
0.0107676
0.0105773
0.0101763
0.00982179
0.00032156
-9.25275e-06
-0.000259047
-0.000363988
-0.000243039
0.000128154
0.000748073
0.00159869
0.00264825
0.00385064
0.00514435
0.00645316
0.00768948
0.00876146
0.00958409
0.010094
0.0102676
0.010141
0.00983968
0.0094776
0.000667175
0.000194756
-8.19106e-05
-0.000199265
-9.69535e-05
0.00024161
0.000815551
0.00161109
0.00260214
0.00374816
0.00499238
0.00626179
0.00747032
0.00852567
0.00934046
0.00984731
0.0100173
0.00987781
0.00954006
0.00902886
0.000817703
0.000205435
-0.000128729
-0.000284111
-0.000213664
9.08116e-05
0.000627801
0.00138739
0.00234936
0.00347905
0.00472384
0.00601207
0.00725526
0.00835461
0.00921235
0.00974815
0.00991986
0.00974386
0.00932994
0.00866048
0.000643044
-0.000102758
-0.000506375
-0.000712416
-0.00067971
-0.000405885
0.000107616
0.000855178
0.00182296
0.00298241
0.00428477
0.00565817
0.00700849
0.00822494
0.00919179
0.00980689
0.0100072
0.00979592
0.00929123
0.00845523
6.14927e-05
-0.000817665
-0.00129635
-0.00155871
-0.00156559
-0.00131819
-0.000816342
-5.99881e-05
0.00094477
0.00217678
0.00359203
0.00511836
0.00665437
0.00807314
0.00923383
0.0100027
0.0102851
0.0100645
0.00946905
0.00844809
-0.000998859
-0.00201893
-0.0025781
-0.00290093
-0.00294944
-0.0027273
-0.00223114
-0.00145312
-0.000389115
0.000949899
0.00252745
0.00427333
0.00607978
0.00780172
0.00926678
0.0102979
0.0107535
0.0105809
0.00991067
0.00867783
-0.00261565
-0.0037913
-0.00443814
-0.00482705
-0.00492259
-0.00473118
-0.00424463
-0.00344459
-0.00231302
-0.000846263
0.00093198
0.00295889
0.00512505
0.00726891
0.00918231
0.010632
0.0114064
0.0113885
0.0106885
0.00921643
-0.00488209
-0.00623377
-0.00697715
-0.00743975
-0.00759243
-0.00744576
-0.00698524
-0.00617861
-0.00498925
-0.00339278
-0.00139237
0.00096621
0.00358157
0.00628342
0.00882877
0.0109162
0.0122347
0.0125569
0.0119251
0.0102012
-0.00791499
-0.00946683
-0.0103148
-0.0108582
-0.0110809
-0.0110004
-0.0105942
-0.00981227
-0.00859419
-0.00688756
-0.00466496
-0.00194167
0.0012054
0.0046139
0.00801648
0.0110379
0.0132344
0.0142013
0.0138278
0.0118806
-0.0118646
-0.0136405
-0.0145938
-0.015217
-0.0155181
-0.0155254
-0.015207
-0.0144908
-0.0132872
-0.0115085
-0.00908548
-0.00598599
-0.0022393
0.00202815
0.00655034
0.0108874
0.0144337
0.0165205
0.0167434
0.0146878
-0.0169305
-0.0189458
-0.0199839
-0.0206607
-0.0210273
-0.0211285
-0.0209201
-0.020304
-0.0191567
-0.0173493
-0.0147601
-0.0112913
-0.00689566
-0.00162375
0.00430558
0.0104227
0.0159511
0.0198605
0.0212437
0.0193579
-0.0233916
-0.025633
-0.0266843
-0.0273304
-0.0276965
-0.0278515
-0.027735
-0.027218
-0.0261403
-0.0243275
-0.0215977
-0.0177696
-0.0126891
-0.00628081
0.0013517
0.00978139
0.0180938
0.0248149
0.0282516
0.0271112
-0.0316658
-0.034042
-0.0349219
-0.0353307
-0.0355227
-0.0355986
-0.0354739
-0.0349825
-0.0339247
-0.0320786
-0.0291955
-0.0249967
-0.0191918
-0.0115262
-0.00190108
0.00941706
0.0214806
0.0323491
0.0392051
0.0399259
-0.0424301
-0.0446467
-0.044927
-0.0446541
-0.0443052
-0.0440159
-0.04366
-0.0430202
-0.0418495
-0.0398725
-0.0367661
-0.0321423
-0.0255492
-0.0165054
-0.00461354
0.0101844
0.0271158
0.0438861
0.0562175
0.0608972
-0.0568652
-0.0581174
-0.056845
-0.0550061
-0.053447
-0.0523093
-0.0513738
-0.0503326
-0.0488651
-0.0466212
-0.0431872
-0.0380511
-0.0305819
-0.020036
-0.00563052
0.0132157
0.0362499
0.0611942
0.0821091
0.0945985
-0.0771841
-0.0753459
-0.0704545
-0.0654372
-0.0616393
-0.0590371
-0.057165
-0.0555186
-0.0536436
-0.0510715
-0.0472677
-0.0415772
-0.033178
-0.0210483
-0.00396728
0.019375
0.04975
0.0857522
0.120073
0.147312
-0.109255
-0.0976207
-0.0844684
-0.0737263
-0.0665636
-0.0621059
-0.0592563
-0.057104
-0.054988
-0.0522837
-0.0482934
-0.0422035
-0.0330017
-0.0193963
0.00024116
0.0281138
0.0666533
0.117099
0.172903
0.229015
-0.176129
-0.125543
-0.095199
-0.0763091
-0.0657141
-0.059953
-0.0567686
-0.0546504
-0.0527038
-0.0503124
-0.0466391
-0.0406589
-0.0311726
-0.0166752
0.00472061
0.036076
0.0819729
0.149285
0.240344
0.370592
-0.353272
-0.163833
-0.0949723
-0.0687089
-0.0567625
-0.0514584
-0.0493873
-0.0485529
-0.0477171
-0.0462731
-0.0435006
-0.038394
-0.0297561
-0.0160074
0.00504671
0.0369826
0.086725
0.174528
0.339381
0.658606
)
;

boundaryField
{
    movingWall
    {
        type            zeroGradient;
    }
    fixedWalls
    {
        type            zeroGradient;
    }
    frontAndBack
    {
        type            empty;
    }
}


// ************************************************************************* //
