/*--------------------------------*- C++ -*----------------------------------*\
  =========                 |
  \\      /  F ield         | OpenFOAM: The Open Source CFD Toolbox
   \\    /   O peration     | Website:  https://openfoam.org
    \\  /    A nd           | Version:  13
     \\/     M anipulation  |
\*---------------------------------------------------------------------------*/
FoamFile
{
    format      ascii;
    class       volVectorField;
    location    "40";
    object      U;
}
// * * * * * * * * * * * * * * * * * * * * * * * * * * * * * * * * * * * * * //

dimensions      [0 1 -1 0 0 0 0];

internalField   nonuniform List<vector> 
400
(
(-1.73118e-05 2.58968e-05 0)
(-0.000581259 0.00021316 0)
(-0.00179009 0.000415327 0)
(-0.0035442 0.000556826 0)
(-0.00555178 0.000628939 0)
(-0.00757595 0.000641393 0)
(-0.00944222 0.00060055 0)
(-0.0110196 0.000513161 0)
(-0.012206 0.000385274 0)
(-0.0129194 0.000223553 0)
(-0.0130966 3.70962e-05 0)
(-0.0126984 -0.000161005 0)
(-0.0117193 -0.000352659 0)
(-0.0101998 -0.000514993 0)
(-0.00824044 -0.000622196 0)
(-0.00601439 -0.000649619 0)
(-0.00377302 -0.000581379 0)
(-0.00184078 -0.000413379 0)
(-0.000555025 -0.000181148 0)
(-1.39889e-05 -6.66669e-06 0)
(-0.000179866 0.000600924 0)
(-0.00158475 0.00146448 0)
(-0.00449383 0.00276373 0)
(-0.00856362 0.0035402 0)
(-0.0132394 0.00381601 0)
(-0.0179829 0.00370808 0)
(-0.022388 0.00331028 0)
(-0.0261358 0.00268657 0)
(-0.0289701 0.00187792 0)
(-0.0306785 0.000917139 0)
(-0.0310942 -0.000156542 0)
(-0.0301119 -0.00128601 0)
(-0.0277162 -0.00238791 0)
(-0.0240172 -0.00334918 0)
(-0.0192843 -0.00402935 0)
(-0.0139708 -0.00427195 0)
(-0.00870746 -0.00393163 0)
(-0.00427219 -0.00291843 0)
(-0.00129987 -0.00134782 0)
(-0.000194558 -0.000516317 0)
(-0.000395072 0.00191802 0)
(-0.00311533 0.00449521 0)
(-0.00806839 0.00750056 0)
(-0.0143347 0.00927648 0)
(-0.021252 0.00988697 0)
(-0.0281263 0.00956131 0)
(-0.0344275 0.00850463 0)
(-0.0397311 0.00686633 0)
(-0.0436974 0.00475134 0)
(-0.0460521 0.00225027 0)
(-0.046586 -0.000528887 0)
(-0.0451728 -0.00343388 0)
(-0.0418012 -0.00624962 0)
(-0.0366151 -0.00869093 0)
(-0.0299559 -0.010412 0)
(-0.0223948 -0.0110404 0)
(-0.0147248 -0.0102481 0)
(-0.00793991 -0.00786994 0)
(-0.0028302 -0.00415212 0)
(-0.000430819 -0.00172196 0)
(-0.00059219 0.00396381 0)
(-0.00441011 0.00908264 0)
(-0.011133 0.0140275 0)
(-0.0192602 0.0168272 0)
(-0.0280242 0.0176754 0)
(-0.0366147 0.0169509 0)
(-0.0444295 0.0149896 0)
(-0.0509848 0.0120399 0)
(-0.0558927 0.00828108 0)
(-0.0588369 0.00387003 0)
(-0.059571 -0.00100888 0)
(-0.0579368 -0.00609981 0)
(-0.0538997 -0.0110435 0)
(-0.0475972 -0.0153627 0)
(-0.0393943 -0.0184754 0)
(-0.0299325 -0.0197498 0)
(-0.0201346 -0.0186215 0)
(-0.0112116 -0.0147876 0)
(-0.00414144 -0.00855076 0)
(-0.000666258 -0.00366742 0)
(-0.00076545 0.00661306 0)
(-0.00550034 0.0150706 0)
(-0.0137865 0.0222321 0)
(-0.0235725 0.0261051 0)
(-0.033983 0.0271135 0)
(-0.0441038 0.025837 0)
(-0.0532835 0.0227664 0)
(-0.0610049 0.0182591 0)
(-0.0668508 0.0125716 0)
(-0.0704712 0.00592569 0)
(-0.0715765 -0.0014204 0)
(-0.069956 -0.0091072 0)
(-0.0655171 -0.0166242 0)
(-0.0583462 -0.0232808 0)
(-0.0487858 -0.0282168 0)
(-0.0375144 -0.0304747 0)
(-0.0255828 -0.0291653 0)
(-0.0144638 -0.023748 0)
(-0.00538632 -0.0144894 0)
(-0.000920154 -0.00626461 0)
(-0.000925695 0.00979211 0)
(-0.00650433 0.0222866 0)
(-0.016252 0.0319486 0)
(-0.0276156 0.0369551 0)
(-0.0396073 0.038061 0)
(-0.0512151 0.0361091 0)
(-0.0617525 0.0317744 0)
(-0.0706847 0.0255315 0)
(-0.0775777 0.0177092 0)
(-0.082051 0.00858142 0)
(-0.0837634 -0.00153632 0)
(-0.082428 -0.0121957 0)
(-0.0778564 -0.0227409 0)
(-0.0700331 -0.0322537 0)
(-0.0592234 -0.0395485 0)
(-0.0461005 -0.0432519 0)
(-0.0318368 -0.0420167 0)
(-0.0182202 -0.0349116 0)
(-0.00681584 -0.0220481 0)
(-0.00123301 -0.00953833 0)
(-0.00108142 0.0134956 0)
(-0.00752551 0.03068 0)
(-0.018733 0.043144 0)
(-0.0316881 0.0493602 0)
(-0.045282 0.0505174 0)
(-0.0584109 0.0477909 0)
(-0.0703665 0.0420743 0)
(-0.0806125 0.0339674 0)
(-0.0887115 0.0238611 0)
(-0.0942589 0.0120591 0)
(-0.0968568 -0.00109508 0)
(-0.0961234 -0.0150946 0)
(-0.0917363 -0.0291604 0)
(-0.0835206 -0.0421438 0)
(-0.0715923 -0.0524869 0)
(-0.0565484 -0.0582872 0)
(-0.0396447 -0.0575537 0)
(-0.0230224 -0.0487335 0)
(-0.00869094 -0.0315993 0)
(-0.0016457 -0.0136469 0)
(-0.00124116 0.0177702 0)
(-0.0086434 0.0402836 0)
(-0.0213806 0.0558632 0)
(-0.0359973 0.0633645 0)
(-0.0512486 0.0645267 0)
(-0.0659465 0.0609375 0)
(-0.0793791 0.053748 0)
(-0.0910301 0.0436915 0)
(-0.100478 0.0312072 0)
(-0.107312 0.016599 0)
(-0.111082 0.000197124 0)
(-0.111304 -0.0174834 0)
(-0.107493 -0.0355817 0)
(-0.0992538 -0.0527411 0)
(-0.0864609 -0.0670001 0)
(-0.0695219 -0.0758055 0)
(-0.0496771 -0.0762808 0)
(-0.02941 -0.0659084 0)
(-0.0112934 -0.0437989 0)
(-0.00220304 -0.0188821 0)
(-0.00141238 0.0227029 0)
(-0.00991798 0.0511887 0)
(-0.0242953 0.0701984 0)
(-0.0406564 0.0790339 0)
(-0.0575995 0.0801289 0)
(-0.0738623 0.0755777 0)
(-0.0887555 0.0668353 0)
(-0.101812 0.0547786 0)
(-0.11266 0.03988 0)
(-0.120908 0.0224094 0)
(-0.126086 0.00263214 0)
(-0.127618 -0.0189952 0)
(-0.124844 -0.0416035 0)
(-0.117102 -0.0636891 0)
(-0.103919 -0.0828974 0)
(-0.0853532 -0.0959239 0)
(-0.0624408 -0.0987233 0)
(-0.0378942 -0.0873233 0)
(-0.0149376 -0.0595998 0)
(-0.0029503 -0.0256803 0)
(-0.00160313 0.0284162 0)
(-0.0114025 0.0635195 0)
(-0.0275416 0.0862513 0)
(-0.0456974 0.0964052 0)
(-0.0642838 0.0972958 0)
(-0.0819805 0.0916411 0)
(-0.0981569 0.0812546 0)
(-0.112438 0.0671715 0)
(-0.124544 0.0498847 0)
(-0.134155 0.0295953 0)
(-0.14083 0.00644601 0)
(-0.143945 -0.019244 0)
(-0.142692 -0.0467067 0)
(-0.136123 -0.0744078 0)
(-0.123325 -0.0996852 0)
(-0.103805 -0.118455 0)
(-0.078105 -0.125228 0)
(-0.0488768 -0.113932 0)
(-0.0199681 -0.080247 0)
(-0.00392885 -0.0346383 0)
(-0.00182627 0.0350716 0)
(-0.0131615 0.0774192 0)
(-0.031171 0.104097 0)
(-0.0510871 0.115429 0)
(-0.0711103 0.11586 0)
(-0.0898906 0.108874 0)
(-0.106909 0.0967115 0)
(-0.121937 0.0805845 0)
(-0.134851 0.061 0)
(-0.145471 0.0380622 0)
(-0.153458 0.0117368 0)
(-0.158228 -0.0178854 0)
(-0.158899 -0.0502727 0)
(-0.154275 -0.084041 0)
(-0.14296 -0.116417 0)
(-0.123716 -0.142651 0)
(-0.0961968 -0.15565 0)
(-0.0624692 -0.146504 0)
(-0.0267212 -0.107217 0)
(-0.00516972 -0.046524 0)
(-0.0021077 0.0428858 0)
(-0.0152962 0.0930475 0)
(-0.0352504 0.123744 0)
(-0.0567389 0.135901 0)
(-0.0777311 0.135421 0)
(-0.0969046 0.126737 0)
(-0.113931 0.112589 0)
(-0.128808 0.0943909 0)
(-0.141641 0.072666 0)
(-0.152476 0.0474044 0)
(-0.16118 0.0183528 0)
(-0.167324 -0.0147136 0)
(-0.170088 -0.0516469 0)
(-0.168148 -0.0914524 0)
(-0.159674 -0.131569 0)
(-0.142562 -0.166922 0)
(-0.115161 -0.188918 0)
(-0.0781698 -0.185185 0)
(-0.0354271 -0.142021 0)
(-0.00668451 -0.0622673 0)
(-0.00250238 0.0521671 0)
(-0.0179874 0.110595 0)
(-0.0398977 0.145087 0)
(-0.0625059 0.157356 0)
(-0.0835795 0.155219 0)
(-0.101945 0.144268 0)
(-0.117595 0.127816 0)
(-0.130857 0.107504 0)
(-0.142162 0.0838743 0)
(-0.151873 0.0567983 0)
(-0.16017 0.0257809 0)
(-0.166922 -0.00977953 0)
(-0.171542 -0.0502567 0)
(-0.172793 -0.0953063 0)
(-0.168598 -0.143018 0)
(-0.156034 -0.188598 0)
(-0.131832 -0.222523 0)
(-0.0943829 -0.228803 0)
(-0.0460202 -0.185739 0)
(-0.00845168 -0.0829093 0)
(-0.00312392 0.0633861 0)
(-0.0215705 0.130313 0)
(-0.0453217 0.167804 0)
(-0.0681163 0.178892 0)
(-0.0876888 0.173929 0)
(-0.103273 0.159893 0)
(-0.115402 0.14072 0)
(-0.124884 0.118266 0)
(-0.132574 0.0930861 0)
(-0.139237 0.0649324 0)
(-0.145453 0.0330664 0)
(-0.151504 -0.00350957 0)
(-0.157222 -0.0457814 0)
(-0.16173 -0.0942695 0)
(-0.163055 -0.148193 0)
(-0.157759 -0.203893 0)
(-0.14094 -0.252084 0)
(-0.107809 -0.273987 0)
(-0.0578191 -0.238134 0)
(-0.0103841 -0.109483 0)
(-0.0041983 0.0773149 0)
(-0.0266595 0.152568 0)
(-0.0518131 0.191148 0)
(-0.07291 0.198831 0)
(-0.0881827 0.189324 0)
(-0.0978186 0.171166 0)
(-0.103262 0.148852 0)
(-0.105987 0.124365 0)
(-0.107357 0.0982152 0)
(-0.108568 0.070016 0)
(-0.110616 0.0387983 0)
(-0.114246 0.00320227 0)
(-0.119827 -0.0383545 0)
(-0.1271 -0.0873448 0)
(-0.134683 -0.144488 0)
(-0.139256 -0.208215 0)
(-0.134768 -0.271247 0)
(-0.112801 -0.314303 0)
(-0.0689873 -0.296254 0)
(-0.0122163 -0.142778 0)
(-0.00606559 0.0953461 0)
(-0.0342211 0.177902 0)
(-0.0594343 0.213441 0)
(-0.0748643 0.214046 0)
(-0.0808002 0.197723 0)
(-0.0794931 0.174433 0)
(-0.0738216 0.148878 0)
(-0.0660542 0.122875 0)
(-0.0580269 0.0967637 0)
(-0.0512749 0.0699501 0)
(-0.0470968 0.0412513 0)
(-0.0466009 0.00903481 0)
(-0.0506596 -0.0287148 0)
(-0.0597775 -0.0742833 0)
(-0.0736739 -0.129928 0)
(-0.0900926 -0.196929 0)
(-0.103031 -0.272141 0)
(-0.100755 -0.339787 0)
(-0.0754895 -0.352728 0)
(-0.0130705 -0.182942 0)
(-0.00910616 0.120368 0)
(-0.0451995 0.206746 0)
(-0.0659513 0.230225 0)
(-0.0668104 0.218209 0)
(-0.0544256 0.192879 0)
(-0.0348719 0.164383 0)
(-0.0126985 0.136591 0)
(0.00936186 0.110521 0)
(0.0293988 0.0861824 0)
(0.0458388 0.0627582 0)
(0.0573651 0.0388129 0)
(0.0627879 0.0125768 0)
(0.0609902 -0.0181053 0)
(0.0508568 -0.0558937 0)
(0.0312009 -0.103939 0)
(0.00205692 -0.166506 0)
(-0.0326987 -0.246489 0)
(-0.0594238 -0.337277 0)
(-0.0690608 -0.39487 0)
(-0.0101742 -0.229212 0)
(-0.0140625 0.160541 0)
(-0.0570428 0.237952 0)
(-0.0558837 0.231767 0)
(-0.0224748 0.200861 0)
(0.0214482 0.166876 0)
(0.0667526 0.13586 0)
(0.10897 0.108947 0)
(0.146496 0.0854553 0)
(0.178485 0.0648407 0)
(0.203704 0.0468978 0)
(0.221102 0.0301395 0)
(0.229868 0.012487 0)
(0.229117 -0.00817384 0)
(0.217832 -0.0342583 0)
(0.193278 -0.0684379 0)
(0.152162 -0.116612 0)
(0.093097 -0.18807 0)
(0.0282007 -0.291528 0)
(-0.0351657 -0.403809 0)
(0.00414199 -0.281717 0)
(-0.0167675 0.215241 0)
(-0.0394388 0.246065 0)
(0.0472888 0.177314 0)
(0.138959 0.133536 0)
(0.219596 0.101137 0)
(0.287255 0.0767268 0)
(0.34242 0.0582072 0)
(0.387036 0.043622 0)
(0.418823 0.0334707 0)
(0.441992 0.025062 0)
(0.458971 0.0166529 0)
(0.46837 0.00798505 0)
(0.469041 -0.00189178 0)
(0.457776 -0.0144773 0)
(0.42956 -0.0298812 0)
(0.380689 -0.0541837 0)
(0.301116 -0.0998971 0)
(0.192223 -0.198741 0)
(0.0341352 -0.373955 0)
(0.0510584 -0.307441 0)
(0.248055 0.109838 0)
(0.325763 0.102506 0)
(0.463021 0.0660728 0)
(0.562245 0.0465581 0)
(0.629416 0.0344945 0)
(0.677927 0.0261918 0)
(0.713869 0.0202533 0)
(0.74075 0.0158908 0)
(0.761117 0.0123947 0)
(0.776387 0.00949136 0)
(0.786868 0.00712276 0)
(0.792712 0.00515525 0)
(0.793937 0.00343339 0)
(0.790264 0.00176541 0)
(0.780242 -0.000384663 0)
(0.761094 -0.00301147 0)
(0.722118 -0.00844589 0)
(0.651343 -0.0183204 0)
(0.483596 -0.0607958 0)
(0.313538 -0.117372 0)
)
;

boundaryField
{
    movingWall
    {
        type            fixedValue;
        value           uniform (1 0 0);
    }
    fixedWalls
    {
        type            fixedValue;
        value           uniform (0 0 0);
    }
    frontAndBack
    {
        type            empty;
    }
}


// ************************************************************************* //
