/*--------------------------------*- C++ -*----------------------------------*\
  =========                 |
  \\      /  F ield         | OpenFOAM: The Open Source CFD Toolbox
   \\    /   O peration     | Website:  https://openfoam.org
    \\  /    A nd           | Version:  13
     \\/     M anipulation  |
\*---------------------------------------------------------------------------*/
FoamFile
{
    format      ascii;
    class       volScalarField;
    location    "20";
    object      p;
}
// * * * * * * * * * * * * * * * * * * * * * * * * * * * * * * * * * * * * * //

dimensions      [0 2 -2 0 0 0 0];

internalField   nonuniform List<scalar> 
400
(
-3.45702e-10
-0.000145304
-5.91615e-05
0.000354912
0.00112458
0.00223421
0.00364841
0.00531927
0.00718941
0.00919369
0.0112606
0.0133139
0.0152744
0.0170633
0.0186051
0.0198332
0.0206964
0.0211702
0.0212846
0.0211617
0.000103105
-4.77209e-05
8.39811e-05
0.000518858
0.00128463
0.00237276
0.00375392
0.00538463
0.0072107
0.0091694
0.0111912
0.0132015
0.0151232
0.0168793
0.0183973
0.0196145
0.020485
0.0209907
0.0211595
0.0210325
-3.40581e-06
-0.000232379
-0.000108183
0.000332194
0.00110765
0.00220735
0.00360208
0.00524922
0.00709534
0.00907818
0.0111283
0.0131707
0.0151275
0.0169203
0.0184748
0.0197261
0.0206255
0.0211504
0.0213189
0.0211188
-0.000462754
-0.000763252
-0.000651949
-0.000200832
0.000603185
0.00174547
0.00319484
0.00490762
0.00682967
0.00889789
0.0110415
0.0131835
0.0152428
0.0171371
0.0187865
0.0201197
0.0210808
0.0216394
0.0218068
0.0215422
-0.00134985
-0.00171336
-0.00160943
-0.0011335
-0.000275461
0.000946053
0.00249654
0.0043298
0.00638958
0.00861063
0.0109195
0.0132356
0.0154727
0.0175414
0.0193531
0.0208259
0.0218924
0.0225118
0.0226905
0.0223713
-0.00272054
-0.00314557
-0.0030398
-0.00251938
-0.00157636
-0.000234026
0.00146859
0.00348148
0.00574514
0.00819114
0.0107424
0.0133135
0.0158115
0.0181374
0.0201903
0.021873
0.0231018
0.0238214
0.0240312
0.0236613
-0.00463925
-0.00513051
-0.005012
-0.00442285
-0.00335839
-0.00184819
6.25964e-05
0.00231888
0.00485702
0.0076049
0.0104814
0.0133957
0.0162471
0.0189253
0.0213134
0.0232938
0.0247597
0.0256339
0.0259029
0.0254832
-0.00718977
-0.0077565
-0.00761215
-0.00692457
-0.00569535
-0.00396333
-0.00178201
0.000787035
0.00367537
0.00680716
0.0100977
0.0134514
0.01676
0.0199007
0.0227379
0.0251276
0.0269304
0.0280353
0.0284053
0.0279372
-0.0104833
-0.0111375
-0.0109499
-0.0101258
-0.00867854
-0.00666097
-0.00413816
-0.00117986
0.00214029
0.00574341
0.00954274
0.0134401
0.0173215
0.0210529
0.0244779
0.0274201
0.0296951
0.0311406
0.0316758
0.0311685
-0.0146677
-0.0154222
-0.015165
-0.0141524
-0.0124182
-0.0100368
-0.00708913
-0.00365544
0.000185251
0.00435243
0.00876027
0.0133122
0.0178935
0.0223628
0.0265441
0.0302232
0.0331563
0.0351035
0.0359067
0.0353873
-0.019941
-0.020805
-0.0204355
-0.0191582
-0.0170431
-0.0141966
-0.0107225
-0.00671375
-0.00225507
0.00257381
0.00769278
0.0130138
0.0184304
0.0238029
0.0289422
0.0335952
0.0374426
0.0401304
0.0413685
0.0409021
-0.0265727
-0.0275423
-0.0269859
-0.0253263
-0.0226948
-0.0192468
-0.0151168
-0.0104145
-0.00522965
0.000362507
0.00629445
0.0124973
0.0188867
0.0253411
0.031674
0.0376006
0.0427134
0.0464976
0.0484433
0.0481708
-0.034938
-0.0359742
-0.0350962
-0.032864
-0.0295135
-0.0252724
-0.0203174
-0.0147776
-0.00874602
-0.00228771
0.00455253
0.0117396
0.0192309
0.0269492
0.0347394
0.0423093
0.049163
0.0545711
0.0576714
0.0578809
-0.0455783
-0.0465544
-0.0451037
-0.0419822
-0.0376022
-0.0322961
-0.0262933
-0.0197427
-0.0127342
-0.00531193
0.00251603
0.010767
0.0194664
0.0286167
0.0381416
0.0477929
0.057016
0.0648231
0.0698096
0.0710754
-0.05931
-0.0598853
-0.0573827
-0.0528373
-0.046953
-0.0402027
-0.0328713
-0.025115
-0.017003
-0.00853933
0.000324748
0.00968102
0.0196517
0.030363
0.0418846
0.0541038
0.0664978
0.0778245
0.0858951
0.0893505
-0.077429
-0.0767415
-0.0722563
-0.0653897
-0.0573022
-0.0486189
-0.0396477
-0.0305073
-0.0212052
-0.0116728
-0.00177939
0.00866368
0.0199024
0.0322307
0.0459455
0.061211
0.0777319
0.0941584
0.107282
0.11517
-0.102131
-0.0979942
-0.0897114
-0.0790898
-0.0678835
-0.0567569
-0.0459083
-0.0353117
-0.0248419
-0.0143133
-0.00348783
0.00793566
0.0203424
0.0342244
0.0501817
0.0688356
0.0904698
0.114109
0.135554
0.152418
-0.138659
-0.124519
-0.108752
-0.0923384
-0.0771452
-0.0633299
-0.0506563
-0.0387804
-0.0273635
-0.0160676
-0.0045378
0.00763717
0.020974
0.0361621
0.0541362
0.0761351
0.103517
0.136836
0.172164
0.208501
-0.201211
-0.154988
-0.12569
-0.101881
-0.0828174
-0.066866
-0.05296
-0.0403371
-0.028429
-0.0167651
-0.00490033
0.00765273
0.0215003
0.0374713
0.0567761
0.0812659
0.11375
0.158291
0.216224
0.303186
-0.365128
-0.194659
-0.13629
-0.105147
-0.0835981
-0.0667274
-0.0525587
-0.0399602
-0.0281908
-0.0167025
-0.00501878
0.00735917
0.0210445
0.0368889
0.0561989
0.0812499
0.116375
0.173632
0.279959
0.535865
)
;

boundaryField
{
    movingWall
    {
        type            zeroGradient;
    }
    fixedWalls
    {
        type            zeroGradient;
    }
    frontAndBack
    {
        type            empty;
    }
}


// ************************************************************************* //
