/*--------------------------------*- C++ -*----------------------------------*\
  =========                 |
  \\      /  F ield         | OpenFOAM: The Open Source CFD Toolbox
   \\    /   O peration     | Website:  https://openfoam.org
    \\  /    A nd           | Version:  13
     \\/     M anipulation  |
\*---------------------------------------------------------------------------*/
FoamFile
{
    format      ascii;
    class       volVectorField;
    location    "20";
    object      U;
}
// * * * * * * * * * * * * * * * * * * * * * * * * * * * * * * * * * * * * * //

dimensions      [0 1 -1 0 0 0 0];

internalField   nonuniform List<vector> 
400
(
(-0.000337328 0.000323657 0)
(-0.00130083 0.000932374 0)
(-0.0029221 0.00119647 0)
(-0.00468725 0.00126024 0)
(-0.0064183 0.00119705 0)
(-0.00798733 0.00104872 0)
(-0.00931893 0.000844123 0)
(-0.0103636 0.000602452 0)
(-0.0110873 0.000337195 0)
(-0.0114669 5.8803e-05 0)
(-0.0114889 -0.00022363 0)
(-0.0111489 -0.000501211 0)
(-0.0104528 -0.000764265 0)
(-0.00941833 -0.00100126 0)
(-0.00807823 -0.00119732 0)
(-0.00648512 -0.00133185 0)
(-0.00472219 -0.00137492 0)
(-0.00292931 -0.00128397 0)
(-0.00130876 -0.00098353 0)
(-0.000337105 -0.000333956 0)
(-0.00102623 0.00125329 0)
(-0.00191666 0.00201419 0)
(-0.00567516 0.00303468 0)
(-0.00972655 0.00331084 0)
(-0.0139455 0.00320552 0)
(-0.0179074 0.00288004 0)
(-0.0213577 0.00241508 0)
(-0.0241312 0.00185386 0)
(-0.0261121 0.00122274 0)
(-0.0272175 0.000541394 0)
(-0.0273913 -0.000171708 0)
(-0.0266049 -0.000895883 0)
(-0.0248617 -0.00160548 0)
(-0.0222071 -0.00226705 0)
(-0.0187425 -0.00283532 0)
(-0.0146477 -0.00324571 0)
(-0.0102206 -0.00339751 0)
(-0.00595206 -0.00311449 0)
(-0.00208956 -0.00202019 0)
(-0.00100944 -0.00129242 0)
(-0.00144813 0.00285743 0)
(-0.00317678 0.0056934 0)
(-0.00874383 0.00813056 0)
(-0.0142546 0.00884671 0)
(-0.0198044 0.00856653 0)
(-0.0249419 0.00767854 0)
(-0.0293756 0.00639622 0)
(-0.0329096 0.00484296 0)
(-0.0354066 0.00309782 0)
(-0.036771 0.00122021 0)
(-0.036941 -0.000735626 0)
(-0.0358883 -0.00271081 0)
(-0.0336228 -0.00463374 0)
(-0.0302032 -0.00641162 0)
(-0.0257523 -0.00791937 0)
(-0.0204805 -0.00898109 0)
(-0.014723 -0.00933414 0)
(-0.00899826 -0.00855584 0)
(-0.00334881 -0.00590932 0)
(-0.00141685 -0.00297051 0)
(-0.00175574 0.00482034 0)
(-0.00388159 0.010193 0)
(-0.0107006 0.0138551 0)
(-0.0172519 0.0148924 0)
(-0.0237494 0.0143609 0)
(-0.0297141 0.0128497 0)
(-0.034836 0.0106939 0)
(-0.038907 0.00809301 0)
(-0.041781 0.00517686 0)
(-0.0433562 0.00204307 0)
(-0.0435655 -0.00122005 0)
(-0.0423759 -0.00451719 0)
(-0.0397929 -0.00773194 0)
(-0.035873 -0.0107123 0)
(-0.0307419 -0.0132525 0)
(-0.0246207 -0.0150651 0)
(-0.0178678 -0.0157304 0)
(-0.0110425 -0.0145981 0)
(-0.00410765 -0.0105857 0)
(-0.00171829 -0.00500945 0)
(-0.00203448 0.00706342 0)
(-0.00444267 0.015586 0)
(-0.0123297 0.0205251 0)
(-0.0198085 0.0218333 0)
(-0.0271643 0.0209562 0)
(-0.0338772 0.0187052 0)
(-0.0396214 0.0155469 0)
(-0.0441836 0.011762 0)
(-0.0474167 0.00753311 0)
(-0.0492165 0.00299614 0)
(-0.0495107 -0.00172802 0)
(-0.0482564 -0.00650936 0)
(-0.0454455 -0.0111873 0)
(-0.0411194 -0.0155485 0)
(-0.0353922 -0.0192993 0)
(-0.0284851 -0.0220273 0)
(-0.0207795 -0.0231346 0)
(-0.012898 -0.0217074 0)
(-0.00478742 -0.0162449 0)
(-0.00199834 -0.00735944 0)
(-0.00233119 0.00958426 0)
(-0.00503629 0.021776 0)
(-0.0140397 0.0281062 0)
(-0.0225066 0.0296592 0)
(-0.0307817 0.0283454 0)
(-0.0382938 0.0252365 0)
(-0.0447014 0.0209495 0)
(-0.0497918 0.0158535 0)
(-0.0534229 0.0101852 0)
(-0.0554928 0.00411498 0)
(-0.0559242 -0.00220925 0)
(-0.0546598 -0.00862927 0)
(-0.0516682 -0.0149454 0)
(-0.0469618 -0.0208832 0)
(-0.0406275 -0.026054 0)
(-0.0328741 -0.0299007 0)
(-0.0241045 -0.0316095 0)
(-0.0150215 -0.029943 0)
(-0.00558983 -0.0228856 0)
(-0.00230422 -0.010044 0)
(-0.00267952 0.0124376 0)
(-0.00575522 0.0288461 0)
(-0.016065 0.0367098 0)
(-0.0256839 0.0384814 0)
(-0.0350194 0.0366231 0)
(-0.0434417 0.0325185 0)
(-0.0505974 0.0269608 0)
(-0.0562836 0.0204182 0)
(-0.0603725 0.0131812 0)
(-0.0627714 0.00544889 0)
(-0.0634003 -0.0026146 0)
(-0.0621839 -0.0108348 0)
(-0.0590569 -0.0189836 0)
(-0.0539855 -0.0267306 0)
(-0.0470078 -0.0335854 0)
(-0.0382991 -0.0388206 0)
(-0.0282716 -0.041355 0)
(-0.017718 -0.0395416 0)
(-0.00664768 -0.0307256 0)
(-0.00266885 -0.0131537 0)
(-0.00310667 0.0157101 0)
(-0.00666204 0.036983 0)
(-0.0185681 0.0465373 0)
(-0.0295686 0.0484783 0)
(-0.0401456 0.0459303 0)
(-0.0496078 0.0406551 0)
(-0.0576003 0.0336569 0)
(-0.063946 0.0255158 0)
(-0.0685473 0.0165752 0)
(-0.0713326 0.00705261 0)
(-0.0722252 -0.00288767 0)
(-0.0711303 -0.0130744 0)
(-0.0679376 -0.0232697 0)
(-0.0625453 -0.0331005 0)
(-0.0549115 -0.041973 0)
(-0.0451413 -0.0489622 0)
(-0.0336271 -0.0526521 0)
(-0.0212467 -0.050869 0)
(-0.00808308 -0.0401443 0)
(-0.0031154 -0.0168268 0)
(-0.00363962 0.0195155 0)
(-0.00781499 0.0464482 0)
(-0.0216923 0.0578518 0)
(-0.034348 0.0598633 0)
(-0.0463581 0.0564176 0)
(-0.0569732 0.049742 0)
(-0.0658593 0.0410959 0)
(-0.0728918 0.0311861 0)
(-0.078028 0.020406 0)
(-0.0812368 0.00897606 0)
(-0.0824573 -0.00296232 0)
(-0.0815771 -0.01527 0)
(-0.0784311 -0.0277306 0)
(-0.0728241 -0.0399546 0)
(-0.0645908 -0.0512557 0)
(-0.0537089 -0.0604884 0)
(-0.0404923 -0.0658224 0)
(-0.0258731 -0.064398 0)
(-0.0100386 -0.0516775 0)
(-0.00365926 -0.0212505 0)
(-0.00431028 0.0239986 0)
(-0.00928326 0.057575 0)
(-0.0255918 0.0709651 0)
(-0.0402006 0.0728613 0)
(-0.0538109 0.0682132 0)
(-0.0656331 0.0598304 0)
(-0.0753927 0.0492817 0)
(-0.0830604 0.037417 0)
(-0.0886857 0.0246718 0)
(-0.0923071 0.0112484 0)
(-0.0938991 -0.0027672 0)
(-0.0933415 -0.0173086 0)
(-0.0904087 -0.0322274 0)
(-0.0847858 -0.0471644 0)
(-0.0761305 -0.0613748 0)
(-0.0642098 -0.073488 0)
(-0.0491581 -0.081177 0)
(-0.0318801 -0.0806885 0)
(-0.012695 -0.0660409 0)
(-0.00430427 -0.026673 0)
(-0.00516044 0.0293467 0)
(-0.0111599 0.070776 0)
(-0.0304484 0.0862269 0)
(-0.0473023 0.0876765 0)
(-0.0626007 0.0813776 0)
(-0.0755588 0.0708758 0)
(-0.0860288 0.0581147 0)
(-0.094141 0.0440999 0)
(-0.100089 0.0292949 0)
(-0.104021 0.0138522 0)
(-0.105975 -0.00223938 0)
(-0.105844 -0.0190394 0)
(-0.103345 -0.0365323 0)
(-0.0980233 -0.0544633 0)
(-0.0893028 -0.0721001 0)
(-0.0766307 -0.0878831 0)
(-0.0598042 -0.0989288 0)
(-0.0395325 -0.100342 0)
(-0.016277 -0.0841552 0)
(-0.00503028 -0.0334208 0)
(-0.00624784 0.0358073 0)
(-0.0135774 0.0865573 0)
(-0.0364769 0.104001 0)
(-0.0557982 0.104436 0)
(-0.0726933 0.0958282 0)
(-0.0864823 0.0826595 0)
(-0.097255 0.0673185 0)
(-0.105394 0.0509684 0)
(-0.111305 0.034071 0)
(-0.115294 0.016686 0)
(-0.117502 -0.0013484 0)
(-0.117862 -0.0202816 0)
(-0.116053 -0.0403123 0)
(-0.11148 -0.0613949 0)
(-0.103288 -0.082933 0)
(-0.090483 -0.103289 0)
(-0.0723037 -0.119034 0)
(-0.0489648 -0.123885 0)
(-0.0210396 -0.107146 0)
(-0.00576674 -0.0419192 0)
(-0.00765479 0.0437199 0)
(-0.0167304 0.105526 0)
(-0.0439073 0.124606 0)
(-0.0657073 0.123075 0)
(-0.083741 0.111207 0)
(-0.0976391 0.0946616 0)
(-0.107908 0.076333 0)
(-0.11531 0.0575142 0)
(-0.12054 0.0386081 0)
(-0.124113 0.0195186 0)
(-0.126308 -0.000128881 0)
(-0.127132 -0.0208424 0)
(-0.126269 -0.043124 0)
(-0.123014 -0.0672666 0)
(-0.116224 -0.0929937 0)
(-0.104365 -0.118814 0)
(-0.0858538 -0.140926 0)
(-0.0599375 -0.151525 0)
(-0.0272179 -0.136256 0)
(-0.00634304 -0.0527112 0)
(-0.00949983 0.0535706 0)
(-0.020914 0.128366 0)
(-0.0529054 0.148169 0)
(-0.0766717 0.143115 0)
(-0.0946624 0.126643 0)
(-0.10723 0.105861 0)
(-0.115572 0.0841684 0)
(-0.120984 0.0628914 0)
(-0.124519 0.0422655 0)
(-0.126926 0.0219497 0)
(-0.128639 0.00128937 0)
(-0.129769 -0.0205412 0)
(-0.130056 -0.0444239 0)
(-0.128766 -0.0711207 0)
(-0.124542 -0.100909 0)
(-0.115291 -0.132812 0)
(-0.0983624 -0.163102 0)
(-0.0713879 -0.182667 0)
(-0.0349134 -0.172566 0)
(-0.00639864 -0.0664751 0)
(-0.0119461 0.0660935 0)
(-0.0265818 0.155711 0)
(-0.0633179 0.174263 0)
(-0.0873177 0.163193 0)
(-0.102698 0.140341 0)
(-0.111319 0.114447 0)
(-0.115437 0.0892406 0)
(-0.117006 0.0658418 0)
(-0.117438 0.0441307 0)
(-0.117667 0.0234063 0)
(-0.118246 0.00267672 0)
(-0.119387 -0.0192261 0)
(-0.120949 -0.0435925 0)
(-0.122297 -0.0717408 0)
(-0.122057 -0.104733 0)
(-0.117736 -0.142609 0)
(-0.105532 -0.182554 0)
(-0.0806955 -0.215097 0)
(-0.0438806 -0.216312 0)
(-0.00521004 -0.0840506 0)
(-0.0151494 0.0824602 0)
(-0.0343684 0.187643 0)
(-0.0738598 0.201007 0)
(-0.093591 0.180136 0)
(-0.101279 0.148939 0)
(-0.101623 0.117501 0)
(-0.0982099 0.0892877 0)
(-0.0935677 0.0647351 0)
(-0.0892603 0.0431031 0)
(-0.0862192 0.0232218 0)
(-0.0849776 0.00375437 0)
(-0.0858034 -0.0167633 0)
(-0.0887193 -0.0399671 0)
(-0.0933807 -0.0677081 0)
(-0.098735 -0.10196 0)
(-0.102351 -0.144292 0)
(-0.0995923 -0.194061 0)
(-0.0826118 -0.243665 0)
(-0.0531526 -0.265528 0)
(-0.0012749 -0.10652 0)
(-0.0188344 0.1056 0)
(-0.0447023 0.224548 0)
(-0.0792064 0.22366 0)
(-0.0842131 0.187559 0)
(-0.0752916 0.146914 0)
(-0.0612889 0.111028 0)
(-0.0465459 0.0816757 0)
(-0.0334476 0.0579251 0)
(-0.0231261 0.0381998 0)
(-0.0161121 0.0208545 0)
(-0.0126875 0.00431477 0)
(-0.0130778 -0.0130156 0)
(-0.0175175 -0.0329178 0)
(-0.0261729 -0.057573 0)
(-0.0388272 -0.0897321 0)
(-0.0540085 -0.132758 0)
(-0.0674057 -0.189583 0)
(-0.0677842 -0.258611 0)
(-0.0603845 -0.3145 0)
(0.00899915 -0.136157 0)
(-0.0203545 0.137869 0)
(-0.0593762 0.253495 0)
(-0.0605161 0.227225 0)
(-0.0290636 0.173429 0)
(0.00847244 0.126929 0)
(0.0422253 0.0911697 0)
(0.0702783 0.0646044 0)
(0.0921556 0.0447083 0)
(0.108121 0.0292137 0)
(0.118537 0.0162824 0)
(0.123613 0.00438579 0)
(0.12324 -0.0078986 0)
(0.116908 -0.022133 0)
(0.103691 -0.0403406 0)
(0.0823184 -0.0654814 0)
(0.0518306 -0.102187 0)
(0.0131996 -0.157464 0)
(-0.020772 -0.241244 0)
(-0.0643639 -0.345838 0)
(0.0353268 -0.177341 0)
(-0.0271548 0.205136 0)
(-0.0547542 0.271702 0)
(0.0639788 0.181731 0)
(0.149202 0.122892 0)
(0.216772 0.0824801 0)
(0.265935 0.0552937 0)
(0.301872 0.0372878 0)
(0.327514 0.02519 0)
(0.345005 0.0166797 0)
(0.355728 0.0102226 0)
(0.360355 0.0047512 0)
(0.35885 -0.000574396 0)
(0.350392 -0.00658551 0)
(0.33316 -0.0143678 0)
(0.303916 -0.0258217 0)
(0.257622 -0.0451801 0)
(0.185821 -0.0820859 0)
(0.094086 -0.170747 0)
(-0.0809815 -0.382943 0)
(0.088475 -0.262439 0)
(0.246777 0.103472 0)
(0.313484 0.103426 0)
(0.476265 0.0629019 0)
(0.574914 0.0444335 0)
(0.636943 0.0312927 0)
(0.676587 0.0219375 0)
(0.702372 0.015323 0)
(0.719352 0.0106083 0)
(0.730562 0.0071703 0)
(0.737771 0.00456711 0)
(0.741962 0.00248264 0)
(0.743609 0.000678294 0)
(0.74279 -0.0010469 0)
(0.73919 -0.00289356 0)
(0.731866 -0.00511633 0)
(0.71885 -0.00809564 0)
(0.691555 -0.0129327 0)
(0.64209 -0.0158219 0)
(0.479292 -0.0539829 0)
(0.345467 -0.106277 0)
)
;

boundaryField
{
    movingWall
    {
        type            fixedValue;
        value           uniform (1 0 0);
    }
    fixedWalls
    {
        type            fixedValue;
        value           uniform (0 0 0);
    }
    frontAndBack
    {
        type            empty;
    }
}


// ************************************************************************* //
