/*--------------------------------*- C++ -*----------------------------------*\
  =========                 |
  \\      /  F ield         | OpenFOAM: The Open Source CFD Toolbox
   \\    /   O peration     | Website:  https://openfoam.org
    \\  /    A nd           | Version:  13
     \\/     M anipulation  |
\*---------------------------------------------------------------------------*/
FoamFile
{
    format      ascii;
    class       volScalarField;
    location    "10";
    object      p;
}
// * * * * * * * * * * * * * * * * * * * * * * * * * * * * * * * * * * * * * //

dimensions      [0 2 -2 0 0 0 0];

internalField   nonuniform List<scalar> 
400
(
-1.86607e-09
0.000111469
0.000554698
0.00135287
0.00248364
0.00391313
0.00559862
0.00749038
0.00953325
0.0116683
0.0138343
0.0159693
0.0180122
0.019904
0.0215895
0.0230189
0.0241497
0.0249479
0.0253911
0.0255026
-0.000111397
1.19664e-06
0.000445006
0.00125008
0.00239132
0.00383401
0.00553488
0.00744367
0.00950476
0.0116587
0.0138439
0.0159978
0.0180589
0.0199677
0.0216686
0.0231113
0.0242525
0.0250576
0.0255014
0.025614
-0.000561796
-0.0004412
1.89115e-05
0.00085314
0.00203532
0.00352906
0.00528926
0.00726377
0.00939505
0.0116219
0.0138807
0.0161075
0.0182388
0.0202133
0.0219735
0.0234673
0.0246494
0.0254837
0.0259438
0.0260644
-0.00140186
-0.0012723
-0.000781219
0.000108328
0.0013678
0.00295769
0.00482938
0.00692712
0.00918984
0.0115529
0.0139497
0.0163128
0.0185755
0.0206732
0.0225449
0.0241348
0.0253943
0.0262838
0.0267749
0.0269044
-0.00266005
-0.00251767
-0.00197965
-0.00100626
0.000369983
0.0021046
0.00414353
0.00642552
0.00888429
0.0114503
0.0140523
0.0166183
0.0190771
0.0213591
0.023398
0.0251326
0.0265088
0.0274822
0.0280202
0.0281626
-0.00437676
-0.00421647
-0.00361312
-0.00252343
-0.000985973
0.000947388
0.00321475
0.00574723
0.00847154
0.0113118
0.0141908
0.0170311
0.0197554
0.0222878
0.0245552
0.0264886
0.028026
0.0291157
0.0297191
0.0298793
-0.00660777
-0.00642307
-0.00573223
-0.00448781
-0.00273738
-0.000543479
0.00202107
0.00487728
0.00794294
0.0111345
0.0143681
0.0175597
0.0206253
0.0234815
0.0260461
0.02824
0.0299904
0.0312348
0.0319257
0.0321104
-0.00942754
-0.00920975
-0.00840355
-0.00695706
-0.00493136
-0.00240435
0.000536213
0.00379818
0.00728858
0.0109153
0.0145873
0.018214
0.0217044
0.0249664
0.0279069
0.0304339
0.0324597
0.0339061
0.0347123
0.0349301
-0.012934
-0.0126707
-0.0117124
-0.0100033
-0.00762493
-0.0046775
-0.0012692
0.00249119
0.00649822
0.0106509
0.0148517
0.0190044
0.0230114
0.0267718
0.0301801
0.0331275
0.0355059
0.037215
0.0381733
0.0384366
-0.0172556
-0.0169277
-0.0157667
-0.0137143
-0.0108842
-0.00740918
-0.00342511
0.000938543
0.00556273
0.0103385
0.0151641
0.0199399
0.0245641
0.0289277
0.0329118
0.0363868
0.0392169
0.0412693
0.0424303
0.0427582
-0.0225625
-0.0221386
-0.0207014
-0.0181943
-0.0147821
-0.0106455
-0.0059577
-0.000872892
0.00447656
0.00997677
0.0155258
0.021026
0.0263755
0.0314603
0.0361481
0.0402847
0.0436969
0.046204
0.0476412
0.0480651
-0.0290837
-0.0285091
-0.0266839
-0.0235625
-0.0193924
-0.0144248
-0.00888219
-0.00294593
0.00324123
0.00956661
0.015936
0.0222614
0.0284485
0.0343848
0.0399274
0.0448949
0.0490651
0.0521865
0.0540117
0.0545863
-0.0371368
-0.0363098
-0.0339183
-0.0299464
-0.0247774
-0.0187647
-0.0121913
-0.00526474
0.00187028
0.00911323
0.0163894
0.0236323
0.0307673
0.0376939
0.0442673
0.05028
0.055449
0.0594209
0.0618124
0.0626394
-0.0471775
-0.0458995
-0.0426445
-0.0374644
-0.0309645
-0.0236395
-0.0158386
-0.00778359
0.000395517
0.0086279
0.0168747
0.0251071
0.0332862
0.0413412
0.0491421
0.0564671
0.062967
0.0681471
0.071402
0.0726801
-0.0598944
-0.0577536
-0.0531202
-0.0461836
-0.0379024
-0.0289466
-0.0197152
-0.0104135
-0.00112626
0.00813
0.0173726
0.0266289
0.0359161
0.0452178
0.0544492
0.063405
0.0716862
0.0786228
0.0832562
0.085397
-0.0764014
-0.0724896
-0.0655554
-0.0560293
-0.0453868
-0.034458
-0.0236241
-0.0130096
-0.00260817
0.00764836
0.0178542
0.0281108
0.0385122
0.0491266
0.0599606
0.0708894
0.0815319
0.0910579
0.0979922
0.101904
-0.0987021
-0.0908422
-0.0799253
-0.0666069
-0.0529479
-0.0397657
-0.0272588
-0.0153662
-0.00393343
0.00722068
0.0182819
0.029436
0.0408688
0.0527614
0.0652683
0.0784505
0.0921095
0.105428
0.116345
0.124205
-0.131035
-0.113406
-0.0954909
-0.0768892
-0.0597165
-0.0442468
-0.0302083
-0.0172304
-0.00496615
0.00688973
0.0186129
0.0304687
0.042733
0.0557109
0.0697493
0.0852191
0.102392
0.120993
0.138908
0.156538
-0.184595
-0.139365
-0.109702
-0.0848055
-0.0643671
-0.0471151
-0.0320184
-0.0183469
-0.00557645
0.00669529
0.0188073
0.031079
0.0438495
0.057521
0.0726177
0.0898697
0.110308
0.135204
0.164867
0.210097
-0.329301
-0.1756
-0.120771
-0.0887958
-0.0661302
-0.0480408
-0.032556
-0.0186651
-0.00574692
0.00664143
0.0188612
0.0312495
0.0441677
0.0580586
0.0735434
0.0916328
0.114298
0.146274
0.201103
0.354803
)
;

boundaryField
{
    movingWall
    {
        type            zeroGradient;
    }
    fixedWalls
    {
        type            zeroGradient;
    }
    frontAndBack
    {
        type            empty;
    }
}


// ************************************************************************* //
