/*--------------------------------*- C++ -*----------------------------------*\
  =========                 |
  \\      /  F ield         | OpenFOAM: The Open Source CFD Toolbox
   \\    /   O peration     | Website:  https://openfoam.org
    \\  /    A nd           | Version:  13
     \\/     M anipulation  |
\*---------------------------------------------------------------------------*/
FoamFile
{
    format      ascii;
    class       surfaceScalarField;
    location    "10";
    object      phi;
}
// * * * * * * * * * * * * * * * * * * * * * * * * * * * * * * * * * * * * * //

dimensions      [0 3 -1 0 0 0 0];

internalField   nonuniform List<scalar> 
760
(
-9.28439e-06
9.2847e-06
-4.7646e-05
3.83615e-05
-8.58056e-05
3.81596e-05
-0.000121564
3.57588e-05
-0.00015368
3.21154e-05
-0.000181204
2.75241e-05
-0.00020338
2.2176e-05
-0.000219627
1.62473e-05
-0.000229537
9.90975e-06
-0.000232867
3.3299e-06
-0.000229537
-3.33005e-06
-0.000219627
-9.90991e-06
-0.00020338
-1.62474e-05
-0.000181204
-2.21759e-05
-0.00015368
-2.75242e-05
-0.000121564
-3.21153e-05
-8.58054e-05
-3.57586e-05
-4.76459e-05
-3.81596e-05
-9.28454e-06
-3.83616e-05
-9.2845e-06
-3.91453e-05
4.84299e-05
-0.000261017
0.000260233
-0.000473502
0.000250644
-0.000671235
0.000233492
-0.000848536
0.000209416
-0.00100039
0.000179383
-0.0011227
0.000144478
-0.00121227
0.000105825
-0.0012669
6.45339e-05
-0.00128525
2.1683e-05
-0.0012669
-2.16835e-05
-0.00121227
-6.45344e-05
-0.0011227
-0.000105825
-0.00100039
-0.000144478
-0.000848535
-0.000179383
-0.000671234
-0.000209416
-0.000473501
-0.000233492
-0.000261017
-0.000250644
-3.9145e-05
-0.000260233
-4.843e-05
-4.18993e-05
9.03292e-05
-0.000270547
0.000488881
-0.000490569
0.000470665
-0.000695202
0.000438125
-0.000878442
0.000392657
-0.00103516
0.0003361
-0.0011612
0.000270518
-0.00125341
0.000198031
-0.00130959
0.000120714
-0.00132845
4.05506e-05
-0.00130959
-4.05517e-05
-0.00125341
-0.000120715
-0.0011612
-0.000198032
-0.00103516
-0.000270518
-0.000878442
-0.0003361
-0.000695201
-0.000392657
-0.000490568
-0.000438125
-0.000270547
-0.000470665
-4.18993e-05
-0.000488881
-9.03292e-05
-4.49601e-05
0.000135289
-0.00028865
0.00073257
-0.000522945
0.00070496
-0.000740463
0.000655643
-0.000934757
0.000586951
-0.00110047
0.000501815
-0.0012334
0.000403442
-0.00133042
0.000295056
-0.00138944
0.000179733
-0.00140925
6.03549e-05
-0.00138944
-6.03562e-05
-0.00133042
-0.000179735
-0.0012334
-0.000295057
-0.00110047
-0.000403443
-0.000934756
-0.000501815
-0.000740462
-0.000586951
-0.000522944
-0.000655644
-0.000288649
-0.000704961
-4.49601e-05
-0.000732571
-0.000135289
-4.93042e-05
0.000184593
-0.000316032
0.000999297
-0.000571934
0.000960862
-0.000808743
0.000892452
-0.00101941
0.000797621
-0.00119831
0.000680715
-0.00134122
0.000546345
-0.00144515
0.000398994
-0.00150822
0.000242795
-0.00152935
8.1487e-05
-0.00150821
-8.1488e-05
-0.00144515
-0.000242796
-0.00134122
-0.000398995
-0.00119831
-0.000546345
-0.00101941
-0.000680716
-0.000808741
-0.000797622
-0.000571933
-0.000892453
-0.000316031
-0.000960863
-4.9304e-05
-0.000999298
-0.000184593
-5.53e-05
0.000239893
-0.000354005
0.001298
-0.00063968
0.00124654
-0.000902743
0.00115551
-0.00113536
0.00103024
-0.00133163
0.000876981
-0.00148744
0.000702159
-0.00160018
0.000511735
-0.00166833
0.000310942
-0.00169112
0.000104278
-0.00166833
-0.000104279
-0.00160018
-0.000310943
-0.00148744
-0.000511736
-0.00133162
-0.00070216
-0.00113536
-0.000876982
-0.000902742
-0.00103024
-0.000639679
-0.00115552
-0.000354004
-0.00124654
-5.53e-05
-0.001298
-0.000239893
-6.33085e-05
0.000303202
-0.000404527
0.00163922
-0.000729357
0.00157137
-0.00102635
0.0014525
-0.00128669
0.00129058
-0.00150433
0.00109463
-0.00167562
0.000873448
-0.00179865
0.000634766
-0.00187262
0.000384915
-0.00189729
0.00012895
-0.00187262
-0.00012895
-0.00179865
-0.000384915
-0.00167562
-0.000634767
-0.00150433
-0.00087345
-0.00128668
-0.00109463
-0.00102634
-0.00129058
-0.000729357
-0.0014525
-0.000404526
-0.00157137
-6.33085e-05
-0.00163922
-0.000303202
-7.38378e-05
0.000377039
-0.000470453
0.00203583
-0.000845487
0.0019464
-0.00118488
0.0017919
-0.00147876
0.00158445
-0.00172128
0.00133715
-0.00190984
0.00106201
-0.00204389
0.000768819
-0.0021239
0.000464921
-0.00215048
0.00015553
-0.0021239
-0.000155531
-0.00204389
-0.000464922
-0.00190984
-0.000768819
-0.00172128
-0.00106201
-0.00147876
-0.00133715
-0.00118488
-0.00158445
-0.000845487
-0.0017919
-0.000470453
-0.0019464
-7.38376e-05
-0.00203584
-0.00037704
-8.76526e-05
0.000464692
-0.000555938
0.00250412
-0.000994415
0.00238488
-0.00138547
0.00218296
-0.00171826
0.00191724
-0.00198797
0.00160687
-0.00219415
0.00126818
-0.00233865
0.000913321
-0.00242401
0.000550284
-0.00245222
0.000183739
-0.00242401
-0.00018374
-0.00233865
-0.000550286
-0.00219415
-0.000913322
-0.00198797
-0.00126818
-0.00171826
-0.00160687
-0.00138547
-0.00191724
-0.000994415
-0.00218296
-0.000555938
-0.00238488
-8.76526e-05
-0.00250412
-0.000464692
-0.000105937
0.000570629
-0.000667051
0.00306523
-0.00118494
0.00290277
-0.00163729
0.0026353
-0.00201293
0.00229288
-0.00230977
0.00190371
-0.00253135
0.00148976
-0.00268358
0.00106555
-0.00277222
0.000638923
-0.00280129
0.000212809
-0.00277222
-0.00021281
-0.00268358
-0.000638924
-0.00253135
-0.00106555
-0.00230977
-0.00148976
-0.00201293
-0.00190371
-0.00163729
-0.00229288
-0.00118494
-0.0026353
-0.00066705
-0.00290277
-0.000105937
-0.00306523
-0.000570629
-0.00013058
0.00070121
-0.000812706
0.00374736
-0.00142906
0.00351912
-0.00195149
0.00315774
-0.00237051
0.0027119
-0.00268995
0.00222315
-0.00292047
0.00172029
-0.00307436
0.00121943
-0.0031621
0.000726668
-0.00319056
0.00024127
-0.0031621
-0.00024127
-0.00307436
-0.000726669
-0.00292047
-0.00121944
-0.00268995
-0.00172029
-0.00237051
-0.00222315
-0.00195149
-0.0027119
-0.00142905
-0.00315774
-0.000812706
-0.00351912
-0.00013058
-0.00374736
-0.00070121
-0.000164706
0.000865916
-0.00100601
0.00458866
-0.00174241
0.00425552
-0.00233993
0.00375525
-0.00279568
0.00316766
-0.0031254
0.00255286
-0.00335167
0.00194655
-0.00349624
0.001364
-0.00357601
0.000806443
-0.00360143
0.000266692
-0.00357601
-0.000266692
-0.00349624
-0.000806442
-0.00335167
-0.001364
-0.0031254
-0.00194655
-0.00279568
-0.00255286
-0.00233993
-0.00316766
-0.00174241
-0.00375525
-0.00100601
-0.00425552
-0.000164706
-0.00458866
-0.000865916
-0.000213736
0.00107965
-0.00126605
0.00564097
-0.00214356
0.00513304
-0.00281068
0.00442237
-0.00328252
0.0036395
-0.00359722
0.00286756
-0.00379609
0.00214543
-0.00391376
0.00148168
-0.00397483
0.000867506
-0.00399362
0.000285487
-0.00397483
-0.000285486
-0.00391376
-0.000867505
-0.00379609
-0.00148168
-0.00359722
-0.00214543
-0.00328252
-0.00286756
-0.00281068
-0.0036395
-0.00214356
-0.00442237
-0.00126604
-0.00513304
-0.000213736
-0.00564097
-0.00107965
-0.000287752
0.0013674
-0.00161984
0.00697306
-0.00264895
0.00616215
-0.00335549
0.00512892
-0.00379712
0.00408113
-0.00405137
0.0031218
-0.0041863
0.00228036
-0.00425162
0.001547
-0.00427928
0.000895166
-0.00428667
0.000292882
-0.00427928
-0.00029288
-0.00425162
-0.000895164
-0.0041863
-0.00154699
-0.00405137
-0.00228036
-0.00379712
-0.0031218
-0.00335549
-0.00408112
-0.00264895
-0.00512892
-0.00161984
-0.00616215
-0.000287752
-0.00697305
-0.0013674
-0.000407544
0.00177495
-0.00210272
0.00866823
-0.00325539
0.00731482
-0.00391809
0.00579161
-0.00423954
0.00440258
-0.00435974
0.003242
-0.00437872
0.00229934
-0.00435885
0.00152712
-0.00433539
0.000871709
-0.00432583
0.000283321
-0.00433539
-0.000283319
-0.00435884
-0.000871708
-0.00437872
-0.00152712
-0.00435974
-0.00229934
-0.00423954
-0.003242
-0.00391808
-0.00440258
-0.00325539
-0.00579161
-0.00210272
-0.00731482
-0.000407544
-0.00866823
-0.00177495
-0.000622981
0.00239793
-0.00275038
0.0107956
-0.00388845
0.0084529
-0.00431893
0.00622209
-0.00436404
0.00444769
-0.00424421
0.00312217
-0.00408297
0.0021381
-0.00394209
0.00138625
-0.00384995
0.000779566
-0.0038182
0.000251575
-0.00384995
-0.000251572
-0.00394209
-0.000779564
-0.00408297
-0.00138624
-0.00424421
-0.0021381
-0.00436404
-0.00312217
-0.00431893
-0.00444769
-0.00388845
-0.00622208
-0.00275038
-0.0084529
-0.000622981
-0.0107956
-0.00239793
-0.00107874
0.00347666
-0.00355568
0.0132726
-0.00425903
0.00915624
-0.00408538
0.00604844
-0.00361922
0.00398153
-0.00313296
0.00263591
-0.00272987
0.00173501
-0.00244024
0.00109661
-0.00226815
0.000607479
-0.00221126
0.000194679
-0.00226815
-0.000194678
-0.00244024
-0.000607478
-0.00272987
-0.00109661
-0.00313296
-0.00173501
-0.00361922
-0.00263591
-0.00408538
-0.00398153
-0.00425903
-0.00604844
-0.00355568
-0.00915624
-0.00107874
-0.0132726
-0.00347666
-0.00228243
0.0057591
-0.00428
0.0152701
-0.00348293
0.00835917
-0.00209109
0.0046566
-0.00084522
0.00273566
0.000103409
0.00168728
0.000773701
0.00106472
0.00121357
0.000656744
0.00146205
0.000358999
0.00154235
0.000114374
0.00146205
-0.000114373
0.00121357
-0.000358998
0.000773702
-0.000656743
0.00010341
-0.00106472
-0.000845218
-0.00168728
-0.00209109
-0.00273566
-0.00348293
-0.0046566
-0.00428
-0.00835917
-0.00228243
-0.0152701
-0.0057591
-0.00630203
0.0120611
-0.00363747
0.0126056
0.000870695
0.003851
0.00413914
0.00138816
0.00626146
0.000613335
0.00762671
0.000322033
0.0085044
0.000187033
0.00905045
0.000110691
0.00935015
5.93046e-05
0.00944578
1.87391e-05
0.00935015
-1.87386e-05
0.00905045
-5.93045e-05
0.0085044
-0.00011069
0.00762671
-0.000187033
0.00626147
-0.000322033
0.00413914
-0.000613335
0.000870695
-0.00138816
-0.00363747
-0.003851
-0.00630203
-0.0126056
-0.0120611
0.0120611
0.0246667
0.0285177
0.0299059
0.0305192
0.0308412
0.0310283
0.031139
0.0311983
0.031217
0.0311983
0.031139
0.0310283
0.0308412
0.0305192
0.0299059
0.0285177
0.0246667
0.0120611
)
;

boundaryField
{
    movingWall
    {
        type            calculated;
        value           uniform 0;
    }
    fixedWalls
    {
        type            calculated;
        value           uniform 0;
    }
    frontAndBack
    {
        type            empty;
    }
}


// ************************************************************************* //
