/*--------------------------------*- C++ -*----------------------------------*\
  =========                 |
  \\      /  F ield         | OpenFOAM: The Open Source CFD Toolbox
   \\    /   O peration     | Website:  https://openfoam.org
    \\  /    A nd           | Version:  13
     \\/     M anipulation  |
\*---------------------------------------------------------------------------*/
FoamFile
{
    format      ascii;
    class       volVectorField;
    location    "10";
    object      U;
}
// * * * * * * * * * * * * * * * * * * * * * * * * * * * * * * * * * * * * * //

dimensions      [0 1 -1 0 0 0 0];

internalField   nonuniform List<vector> 
400
(
(-5.92981e-05 5.93228e-05 0)
(-0.000536607 0.000106715 0)
(-0.00120103 0.000106153 0)
(-0.00186628 9.94746e-05 0)
(-0.00247714 8.93392e-05 0)
(-0.00301389 7.6567e-05 0)
(-0.00346118 6.16896e-05 0)
(-0.00380699 4.51972e-05 0)
(-0.0040424 2.75671e-05 0)
(-0.00416156 9.26317e-06 0)
(-0.00416156 -9.26358e-06 0)
(-0.0040424 -2.75676e-05 0)
(-0.00380699 -4.51972e-05 0)
(-0.00346118 -6.16894e-05 0)
(-0.00301389 -7.65672e-05 0)
(-0.00247714 -8.9339e-05 0)
(-0.00186628 -9.9474e-05 0)
(-0.00120103 -0.000106153 0)
(-0.000536608 -0.000106715 0)
(-5.92991e-05 -5.93216e-05 0)
(-0.000108726 0.000543671 0)
(-0.00294494 0.00292589 0)
(-0.00661054 0.00283651 0)
(-0.0103025 0.00264561 0)
(-0.0136777 0.00237349 0)
(-0.0166401 0.00203332 0)
(-0.0191076 0.00163778 0)
(-0.0210145 0.00119968 0)
(-0.0223123 0.000731613 0)
(-0.0229691 0.000245822 0)
(-0.0229691 -0.000245829 0)
(-0.0223123 -0.00073162 0)
(-0.0210145 -0.00119968 0)
(-0.0191076 -0.00163778 0)
(-0.0166401 -0.00203332 0)
(-0.0136777 -0.00237349 0)
(-0.0103024 -0.00264561 0)
(-0.00661053 -0.00283651 0)
(-0.00294494 -0.00292589 0)
(-0.000108725 -0.000543669 0)
(-0.000116177 0.00124883 0)
(-0.00307271 0.00674203 0)
(-0.00684976 0.00649178 0)
(-0.0106716 0.00604455 0)
(-0.0141623 0.00541866 0)
(-0.0172219 0.00463935 0)
(-0.0197667 0.00373496 0)
(-0.0217308 0.0027347 0)
(-0.0230663 0.00166723 0)
(-0.0237417 0.000560102 0)
(-0.0237417 -0.000560117 0)
(-0.0230663 -0.00166724 0)
(-0.0217308 -0.00273471 0)
(-0.0197666 -0.00373497 0)
(-0.0172219 -0.00463935 0)
(-0.0141623 -0.00541866 0)
(-0.0106715 -0.00604455 0)
(-0.00684975 -0.00649178 0)
(-0.00307271 -0.00674203 0)
(-0.000116177 -0.00124883 0)
(-0.000124284 0.00203057 0)
(-0.00328238 0.0109931 0)
(-0.00730375 0.0105806 0)
(-0.0113699 0.00984391 0)
(-0.015076 0.00881647 0)
(-0.018316 0.00754123 0)
(-0.0210037 0.00606564 0)
(-0.0230732 0.00443779 0)
(-0.0244775 0.00270403 0)
(-0.0251869 0.00090815 0)
(-0.0251869 -0.000908171 0)
(-0.0244775 -0.00270405 0)
(-0.0230732 -0.0044378 0)
(-0.0210037 -0.00606565 0)
(-0.018316 -0.00754124 0)
(-0.015076 -0.00881647 0)
(-0.0113699 -0.00984392 0)
(-0.00730374 -0.0105806 0)
(-0.00328237 -0.0109931 0)
(-0.000124284 -0.00203057 0)
(-0.000135546 0.00287894 0)
(-0.00359525 0.0155868 0)
(-0.00799046 0.0149924 0)
(-0.0124245 0.0139329 0)
(-0.0164515 0.0124611 0)
(-0.0199574 0.0106428 0)
(-0.0228534 0.00854808 0)
(-0.0250749 0.00624645 0)
(-0.0265778 0.00380275 0)
(-0.0273355 0.00127658 0)
(-0.0273355 -0.0012766 0)
(-0.0265778 -0.00380278 0)
(-0.0250749 -0.00624647 0)
(-0.0228534 -0.00854809 0)
(-0.0199574 -0.0106428 0)
(-0.0164515 -0.0124612 0)
(-0.0124244 -0.0139329 0)
(-0.00799045 -0.0149924 0)
(-0.00359525 -0.0155868 0)
(-0.000135546 -0.00287895 0)
(-0.000150553 0.00382038 0)
(-0.00402891 0.0206757 0)
(-0.00894065 0.0198666 0)
(-0.0138785 0.0184317 0)
(-0.018339 0.0164507 0)
(-0.0221985 0.0140193 0)
(-0.0253669 0.0112365 0)
(-0.0277838 0.00819656 0)
(-0.0294116 0.00498363 0)
(-0.03023 0.00167189 0)
(-0.03023 -0.0016719 0)
(-0.0294116 -0.00498365 0)
(-0.0277837 -0.00819658 0)
(-0.0253669 -0.0112365 0)
(-0.0221985 -0.0140193 0)
(-0.018339 -0.0164507 0)
(-0.0138785 -0.0184317 0)
(-0.00894064 -0.0198666 0)
(-0.00402891 -0.0206757 0)
(-0.000150553 -0.00382038 0)
(-0.000169409 0.00488785 0)
(-0.00460681 0.026435 0)
(-0.0101998 0.0253611 0)
(-0.0157946 0.0234722 0)
(-0.0208094 0.0208873 0)
(-0.0251105 0.0177445 0)
(-0.0286103 0.0141805 0)
(-0.0312588 0.0103185 0)
(-0.0330317 0.00626271 0)
(-0.0339194 0.00209905 0)
(-0.0339194 -0.00209906 0)
(-0.0330317 -0.00626272 0)
(-0.0312588 -0.0103185 0)
(-0.0286103 -0.0141805 0)
(-0.0251104 -0.0177445 0)
(-0.0208094 -0.0208874 0)
(-0.0157946 -0.0234722 0)
(-0.0101998 -0.0253612 0)
(-0.00460681 -0.026435 0)
(-0.000169409 -0.00488785 0)
(-0.000191664 0.00612217 0)
(-0.00536306 0.0330755 0)
(-0.0118329 0.0316599 0)
(-0.0182597 0.0291996 0)
(-0.0239569 0.0258753 0)
(-0.0287829 0.021886 0)
(-0.0326617 0.0174191 0)
(-0.0355645 0.0126323 0)
(-0.0374907 0.00764852 0)
(-0.0384499 0.00256032 0)
(-0.0384499 -0.00256033 0)
(-0.0374907 -0.00764854 0)
(-0.0355645 -0.0126323 0)
(-0.0326616 -0.0174191 0)
(-0.0287829 -0.021886 0)
(-0.0239568 -0.0258753 0)
(-0.0182597 -0.0291996 0)
(-0.0118329 -0.0316599 0)
(-0.00536306 -0.0330755 0)
(-0.000191664 -0.00612217 0)
(-0.000215565 0.00757558 0)
(-0.00634807 0.0408596 0)
(-0.0139314 0.0389815 0)
(-0.0213911 0.0357737 0)
(-0.0279014 0.0315152 0)
(-0.0333211 0.0264962 0)
(-0.0376023 0.0209717 0)
(-0.0407574 0.0151393 0)
(-0.0428256 0.00913685 0)
(-0.0438476 0.00305342 0)
(-0.0438476 -0.00305344 0)
(-0.0428256 -0.00913687 0)
(-0.0407574 -0.0151393 0)
(-0.0376023 -0.0209717 0)
(-0.0333211 -0.0264962 0)
(-0.0279014 -0.0315152 0)
(-0.0213911 -0.0357737 0)
(-0.0139314 -0.0389815 0)
(-0.00634807 -0.0408596 0)
(-0.000215565 -0.00757558 0)
(-0.000236255 0.00931789 0)
(-0.00763729 0.0501242 0)
(-0.0166229 0.0475889 0)
(-0.0253431 0.0433643 0)
(-0.0327869 0.037891 0)
(-0.0388341 0.0315952 0)
(-0.0434969 0.0248215 0)
(-0.0468595 0.0178098 0)
(-0.0490265 0.0107029 0)
(-0.0500855 0.00356893 0)
(-0.0500855 -0.00356895 0)
(-0.0490265 -0.0107029 0)
(-0.0468595 -0.0178099 0)
(-0.0434969 -0.0248215 0)
(-0.0388341 -0.0315952 0)
(-0.0327869 -0.037891 0)
(-0.0253431 -0.0433643 0)
(-0.0166229 -0.0475889 0)
(-0.00763729 -0.0501242 0)
(-0.000236255 -0.00931789 0)
(-0.000241699 0.0114466 0)
(-0.00934536 0.0613133 0)
(-0.0200821 0.057797 0)
(-0.030308 0.0521373 0)
(-0.0387663 0.045043 0)
(-0.0454036 0.0371417 0)
(-0.0503484 0.0288904 0)
(-0.0538055 0.0205649 0)
(-0.0559789 0.0122903 0)
(-0.0570242 0.00408671 0)
(-0.0570242 -0.00408672 0)
(-0.0559789 -0.0122903 0)
(-0.0538055 -0.0205649 0)
(-0.0503484 -0.0288904 0)
(-0.0454036 -0.0371417 0)
(-0.0387663 -0.045043 0)
(-0.030308 -0.0521373 0)
(-0.0200821 -0.057797 0)
(-0.00934535 -0.0613133 0)
(-0.000241699 -0.0114466 0)
(-0.00020345 0.0141041 0)
(-0.0116491 0.0750242 0)
(-0.0245396 0.0699718 0)
(-0.0365009 0.0622169 0)
(-0.0459539 0.052916 0)
(-0.0530086 0.0429841 0)
(-0.0580049 0.0330015 0)
(-0.0613387 0.023251 0)
(-0.0633561 0.013798 0)
(-0.0643023 0.00457166 0)
(-0.0643023 -0.00457166 0)
(-0.0633561 -0.013798 0)
(-0.0613387 -0.023251 0)
(-0.0580048 -0.0330015 0)
(-0.0530085 -0.0429841 0)
(-0.0459539 -0.052916 0)
(-0.0365009 -0.0622169 0)
(-0.0245396 -0.0699718 0)
(-0.0116491 -0.0750242 0)
(-0.00020345 -0.0141041 0)
(-5.53969e-05 0.0175101 0)
(-0.0148257 0.0920667 0)
(-0.0302735 0.0844971 0)
(-0.0440939 0.0735986 0)
(-0.0542997 0.0612644 0)
(-0.0613559 0.0487838 0)
(-0.0659675 0.0368278 0)
(-0.0688118 0.0256111 0)
(-0.0704185 0.0150655 0)
(-0.0711366 0.00496961 0)
(-0.0711366 -0.0049696 0)
(-0.0704185 -0.0150655 0)
(-0.0688118 -0.0256111 0)
(-0.0659675 -0.0368278 0)
(-0.0613559 -0.0487837 0)
(-0.0542997 -0.0612644 0)
(-0.0440938 -0.0735986 0)
(-0.0302735 -0.0844971 0)
(-0.0148257 -0.0920667 0)
(-5.53966e-05 -0.0175101 0)
(0.000356438 0.0220235 0)
(-0.019317 0.113526 0)
(-0.0375438 0.101657 0)
(-0.0530213 0.0859616 0)
(-0.0632849 0.0694856 0)
(-0.0695169 0.0539042 0)
(-0.073007 0.0398321 0)
(-0.0748047 0.0272581 0)
(-0.07564 0.015864 0)
(-0.075955 0.00520532 0)
(-0.075955 -0.00520529 0)
(-0.07564 -0.015864 0)
(-0.0748047 -0.027258 0)
(-0.073007 -0.0398321 0)
(-0.0695169 -0.0539042 0)
(-0.0632849 -0.0694856 0)
(-0.0530213 -0.0859616 0)
(-0.0375438 -0.101657 0)
(-0.019317 -0.113526 0)
(0.000356439 -0.0220235 0)
(0.00139795 0.0282812 0)
(-0.0258461 0.140772 0)
(-0.0463563 0.121293 0)
(-0.0624639 0.0982848 0)
(-0.0712275 0.0763534 0)
(-0.0751692 0.0572742 0)
(-0.0764121 0.0412173 0)
(-0.0764021 0.027667 0)
(-0.0760122 0.0159019 0)
(-0.0757154 0.00518583 0)
(-0.0757154 -0.00518579 0)
(-0.0760122 -0.0159018 0)
(-0.0764021 -0.027667 0)
(-0.076412 -0.0412173 0)
(-0.0751692 -0.0572742 0)
(-0.0712275 -0.0763533 0)
(-0.0624639 -0.0982848 0)
(-0.0463563 -0.121293 0)
(-0.0258461 -0.140772 0)
(0.00139795 -0.0282812 0)
(0.0039758 0.0375559 0)
(-0.0356678 0.175175 0)
(-0.0557509 0.14191 0)
(-0.0695631 0.108123 0)
(-0.0737576 0.0796524 0)
(-0.0730713 0.0572776 0)
(-0.0705455 0.039937 0)
(-0.0678321 0.0262203 0)
(-0.0657386 0.0148615 0)
(-0.0646253 0.00481406 0)
(-0.0646253 -0.00481403 0)
(-0.0657386 -0.0148614 0)
(-0.067832 -0.0262203 0)
(-0.0705455 -0.039937 0)
(-0.0730712 -0.0572775 0)
(-0.0737576 -0.0796524 0)
(-0.069563 -0.108123 0)
(-0.0557509 -0.141909 0)
(-0.0356678 -0.175175 0)
(0.0039758 -0.0375559 0)
(0.0105059 0.0528713 0)
(-0.0512959 0.216614 0)
(-0.061774 0.158482 0)
(-0.066339 0.110435 0)
(-0.0606101 0.075863 0)
(-0.0520911 0.0518228 0)
(-0.0441225 0.034858 0)
(-0.0379072 0.0223457 0)
(-0.0337609 0.0124834 0)
(-0.0317037 0.00401628 0)
(-0.0317036 -0.00401625 0)
(-0.0337609 -0.0124834 0)
(-0.0379072 -0.0223457 0)
(-0.0441225 -0.034858 0)
(-0.0520911 -0.0518227 0)
(-0.0606101 -0.0758629 0)
(-0.066339 -0.110435 0)
(-0.061774 -0.158482 0)
(-0.0512959 -0.216614 0)
(0.0105059 -0.0528713 0)
(0.0281938 0.0831218 0)
(-0.079408 0.256885 0)
(-0.0517673 0.157639 0)
(-0.0325794 0.0963454 0)
(-0.00920656 0.0604547 0)
(0.0103588 0.0389087 0)
(0.0248459 0.0251976 0)
(0.0348018 0.0157802 0)
(0.0409824 0.0086983 0)
(0.0439363 0.00278147 0)
(0.0439363 -0.00278145 0)
(0.0409824 -0.00869828 0)
(0.0348019 -0.0157802 0)
(0.0248459 -0.0251976 0)
(0.0103588 -0.0389087 0)
(-0.00920654 -0.0604547 0)
(-0.0325794 -0.0963454 0)
(-0.0517673 -0.157639 0)
(-0.079408 -0.256885 0)
(0.0281938 -0.0831218 0)
(0.0820214 0.19187 0)
(-0.144982 0.329266 0)
(0.0121073 0.133838 0)
(0.0796604 0.0630346 0)
(0.127265 0.0339548 0)
(0.158328 0.0200863 0)
(0.178398 0.0124288 0)
(0.19117 0.0075952 0)
(0.198766 0.0041335 0)
(0.202319 0.00131454 0)
(0.202319 -0.00131452 0)
(0.198766 -0.00413349 0)
(0.19117 -0.00759519 0)
(0.178398 -0.0124288 0)
(0.158328 -0.0200863 0)
(0.127265 -0.0339548 0)
(0.0796604 -0.0630346 0)
(0.0121073 -0.133838 0)
(-0.144982 -0.329266 0)
(0.0820214 -0.19187 0)
(0.323722 0.0770623 0)
(0.3875 0.0350665 0)
(0.549184 0.0107128 0)
(0.592171 0.0038616 0)
(0.609232 0.00170619 0)
(0.617409 0.000895838 0)
(0.621923 0.000520292 0)
(0.624582 0.000307921 0)
(0.626105 0.000164975 0)
(0.626805 5.21286e-05 0)
(0.626805 -5.21274e-05 0)
(0.626105 -0.000164974 0)
(0.624582 -0.000307921 0)
(0.621923 -0.000520291 0)
(0.617409 -0.000895838 0)
(0.609232 -0.00170619 0)
(0.592171 -0.0038616 0)
(0.549184 -0.0107128 0)
(0.3875 -0.0350665 0)
(0.323722 -0.0770623 0)
)
;

boundaryField
{
    movingWall
    {
        type            fixedValue;
        value           uniform (1 0 0);
    }
    fixedWalls
    {
        type            fixedValue;
        value           uniform (0 0 0);
    }
    frontAndBack
    {
        type            empty;
    }
}


// ************************************************************************* //
