# Selection   : all
# Cells       : 400
# Volume      : 1.000000e+00
# Time        	maxMag(U)
0             	0.000000e+00
10            	6.268049e-01
20            	7.436091e-01
30            	7.755860e-01
40            	7.939440e-01
50            	8.074448e-01
