/*--------------------------------*- C++ -*----------------------------------*\
  =========                 |
  \\      /  F ield         | OpenFOAM: The Open Source CFD Toolbox
   \\    /   O peration     | Website:  https://openfoam.org
    \\  /    A nd           | Version:  13
     \\/     M anipulation  |
\*---------------------------------------------------------------------------*/
FoamFile
{
    format      ascii;
    class       volScalarField;
    location    "50";
    object      p;
}
// * * * * * * * * * * * * * * * * * * * * * * * * * * * * * * * * * * * * * //

dimensions      [0 2 -2 0 0 0 0];

internalField   nonuniform List<scalar> 
400
(
-1.43294e-09
-0.000323494
-0.000695026
-0.000898627
-0.000840409
-0.000495864
0.000130748
0.00101901
0.00213447
0.0034262
0.00482393
0.00623752
0.00756106
0.00868244
0.00949894
0.00993758
0.00997819
0.00967656
0.00919617
0.00881161
0.000341858
-1.61611e-06
-0.000286889
-0.000434075
-0.000361349
-4.37532e-05
0.00051935
0.00131392
0.00231254
0.00347175
0.00472951
0.00600506
0.00720299
0.00822253
0.00897201
0.00938744
0.00945331
0.00922239
0.00884161
0.00844793
0.000733384
0.000249949
-6.0756e-05
-0.0002152
-0.000156801
0.000128424
0.000640372
0.00136952
0.00229548
0.00338236
0.00457487
0.00579722
0.00695664
0.00795211
0.00868892
0.00909751
0.00915495
0.00890359
0.0084756
0.00792554
0.000946911
0.000318486
-5.34389e-05
-0.000245877
-0.000220043
2.63741e-05
0.00049151
0.00117053
0.00205104
0.00310559
0.00428542
0.00551756
0.00670687
0.00774421
0.00852144
0.00895233
0.0089977
0.00868827
0.00815842
0.00742859
0.000841437
7.06536e-05
-0.000377923
-0.000625999
-0.000644729
-0.000440427
-1.53618e-05
0.0006315
0.001497
0.00256311
0.00378778
0.00509931
0.00639631
0.00755459
0.00844273
0.00894652
0.00900113
0.00862381
0.00796444
0.00703205
0.00032396
-0.000588462
-0.00112122
-0.001435
-0.00150681
-0.00134875
-0.00096123
-0.000335141
0.000537906
0.00165163
0.00297256
0.00443102
0.00591791
0.00728898
0.00838031
0.00903672
0.00915407
0.00872771
0.00792728
0.00675943
-0.000685636
-0.00174327
-0.00236648
-0.0027544
-0.00288904
-0.00278678
-0.00244388
-0.00184016
-0.000952063
0.000230111
0.00168614
0.0033524
0.00511453
0.0068064
0.00822341
0.00915387
0.00943322
0.00901476
0.00808019
0.00663471
-0.00226831
-0.0034791
-0.00420029
-0.00467267
-0.00488502
-0.00485801
-0.00458168
-0.00402123
-0.00313302
-0.00188495
-0.000276134
0.00164483
0.00376605
0.00590332
0.00780665
0.0091905
0.00979934
0.00950694
0.00848004
0.00671461
-0.00451373
-0.00588899
-0.0067171
-0.00728706
-0.00759893
-0.00767913
-0.00750978
-0.00703757
-0.00619287
-0.00491289
-0.00316427
-0.000966315
0.00158694
0.00430593
0.00689831
0.00898962
0.0101937
0.0102441
0.00923295
0.00712411
-0.00752604
-0.00907823
-0.010021
-0.0107018
-0.0111398
-0.0113703
-0.0113662
-0.0110516
-0.0103248
-0.00908279
-0.00724574
-0.00478422
-0.0017501
0.0016869
0.00520926
0.00834855
0.0105449
0.0113032
0.0105316
0.00810857
-0.011431
-0.0131695
-0.0142266
-0.015023
-0.0156098
-0.0160364
-0.0162651
-0.0161939
-0.0156828
-0.0145797
-0.0127435
-0.0100727
-0.00654493
-0.00226996
0.00244741
0.00706148
0.0108047
0.0128425
0.0127182
0.0101186
-0.0163888
-0.0183119
-0.0194593
-0.0203489
-0.0210843
-0.021736
-0.0222544
-0.022507
-0.0223111
-0.0214583
-0.0197332
-0.0169392
-0.0129423
-0.00773922
-0.00155929
0.00502622
0.0110389
0.0151881
0.01639
0.0139504
-0.0226222
-0.0246973
-0.0258567
-0.0267534
-0.0275792
-0.0284345
-0.029254
-0.0298693
-0.0300515
-0.0295318
-0.0280118
-0.0251803
-0.0207566
-0.0145639
-0.00667023
0.00242445
0.0115862
0.0189823
0.0225639
0.0209696
-0.0304775
-0.0325936
-0.0335666
-0.0342544
-0.034997
-0.0359336
-0.0369731
-0.0379023
-0.0384417
-0.0382601
-0.0369716
-0.0341389
-0.0293046
-0.0220635
-0.0122222
-6.58842e-05
0.0132575
0.0253756
0.0328982
0.033444
-0.0405551
-0.0423988
-0.0427318
-0.042746
-0.0430313
-0.0437659
-0.0448076
-0.045879
-0.0466397
-0.0466903
-0.0455534
-0.0426591
-0.0373542
-0.0289624
-0.0169321
-0.00115336
0.0174632
0.0361733
0.0499109
0.0549632
-0.0539763
-0.0547287
-0.0534229
-0.0518478
-0.0509955
-0.0510426
-0.0517298
-0.0526676
-0.0534274
-0.0535224
-0.0523702
-0.0492591
-0.043332
-0.0336119
-0.0191126
0.000866723
0.0260303
0.0537111
0.0770173
0.0907805
-0.0729586
-0.0705109
-0.0654086
-0.0605849
-0.0575561
-0.0562926
-0.0562438
-0.0567972
-0.0573833
-0.0573853
-0.056086
-0.0526142
-0.0458988
-0.0346476
-0.0173955
0.00732773
0.0403646
0.0800627
0.11809
0.147854
-0.103611
-0.0912701
-0.0774806
-0.0667851
-0.060443
-0.0574665
-0.0566066
-0.0568129
-0.0573501
-0.0574091
-0.0560847
-0.0523305
-0.044859
-0.0320566
-0.0119932
0.0176676
0.0595966
0.115027
0.176496
0.236951
-0.171599
-0.118402
-0.0861668
-0.067056
-0.0573424
-0.0532061
-0.0521491
-0.0524431
-0.0531783
-0.0537305
-0.0529108
-0.0494207
-0.0417471
-0.0279822
-0.00591354
0.0276671
0.0778677
0.152024
0.252385
0.392438
-0.35042
-0.156666
-0.0832914
-0.0568659
-0.0460032
-0.0424705
-0.0426812
-0.0444247
-0.0462779
-0.047809
-0.0479513
-0.0453888
-0.0386295
-0.0257741
-0.0042673
0.0301677
0.0852749
0.182988
0.362652
0.684803
)
;

boundaryField
{
    movingWall
    {
        type            zeroGradient;
    }
    fixedWalls
    {
        type            zeroGradient;
    }
    frontAndBack
    {
        type            empty;
    }
}


// ************************************************************************* //
