/*--------------------------------*- C++ -*----------------------------------*\
  =========                 |
  \\      /  F ield         | OpenFOAM: The Open Source CFD Toolbox
   \\    /   O peration     | Website:  https://openfoam.org
    \\  /    A nd           | Version:  13
     \\/     M anipulation  |
\*---------------------------------------------------------------------------*/
FoamFile
{
    format      ascii;
    class       surfaceScalarField;
    location    "50";
    object      phi;
}
// * * * * * * * * * * * * * * * * * * * * * * * * * * * * * * * * * * * * * //

dimensions      [0 3 -1 0 0 0 0];

internalField   nonuniform List<scalar> 
760
(
-5.16508e-06
5.16533e-06
-4.31913e-05
3.80263e-05
-0.000115514
7.23226e-05
-0.000209636
9.41228e-05
-0.000312852
0.000103215
-0.000414675
0.000101823
-0.000506751
9.2075e-05
-0.000582248
7.5497e-05
-0.000635349
5.30997e-05
-0.000661146
2.5797e-05
-0.000655979
-5.16763e-06
-0.000618101
-3.78777e-05
-0.000548564
-6.95378e-05
-0.000452092
-9.64725e-05
-0.00033773
-0.000114362
-0.000218909
-0.000118822
-0.0001124
-0.00010651
-3.56953e-05
-7.67033e-05
-1.00497e-06
-3.46889e-05
-1.00526e-06
-4.06175e-05
4.57829e-05
-0.000153187
0.000150596
-0.000339147
0.000258284
-0.00057118
0.000326155
-0.000822198
0.000354232
-0.00106892
0.000348545
-0.00129192
0.000315077
-0.00147463
0.000258195
-0.00160252
0.000180991
-0.00166326
8.65363e-05
-0.0016477
-2.07296e-05
-0.00155171
-0.000133866
-0.00137844
-0.000242808
-0.00114041
-0.000334504
-0.000860699
-0.000394076
-0.000572223
-0.000407297
-0.000314175
-0.000364557
-0.00012478
-0.000266099
-3.01783e-05
-0.00012929
-3.11845e-05
-8.16756e-05
0.000127459
-0.00028287
0.00035179
-0.000576513
0.000551926
-0.000925478
0.000675119
-0.00129418
0.000722928
-0.00165158
0.000705945
-0.00197134
0.000634837
-0.00223093
0.000517779
-0.00241094
0.000361008
-0.00249531
0.000170907
-0.00247245
-4.35899e-05
-0.00233736
-0.00026896
-0.00209425
-0.000485926
-0.00175911
-0.000669644
-0.00136137
-0.000791817
-0.000943366
-0.000825303
-0.000556351
-0.000751575
-0.000252021
-0.00057043
-6.94218e-05
-0.000311889
-0.000100608
-0.000117958
0.000245416
-0.000399503
0.000633335
-0.000790727
0.000943149
-0.00124212
0.00112651
-0.00171078
0.00119159
-0.00216057
0.00115573
-0.00256105
0.00103532
-0.00288616
0.000842894
-0.00311333
0.000588175
-0.00322354
0.000281109
-0.00320253
-6.45943e-05
-0.00304314
-0.00042835
-0.00274835
-0.000780725
-0.00233465
-0.00108334
-0.0018348
-0.00129167
-0.00129828
-0.00136182
-0.000787897
-0.00126196
-0.00037092
-0.000987408
-0.000105071
-0.00057774
-0.000205679
-0.000149437
0.000394853
-0.000503151
0.000987048
-0.000983359
0.00142336
-0.00152813
0.00167128
-0.00208766
0.00175112
-0.00262193
0.00169
-0.00309802
0.00151141
-0.00348777
0.00123264
-0.00376627
0.000866679
-0.00391162
0.000426459
-0.00390599
-7.02325e-05
-0.00373807
-0.000596266
-0.00340685
-0.00111195
-0.00292619
-0.00156399
-0.0023295
-0.00188837
-0.0016724
-0.00201893
-0.001031
-0.00190335
-0.000492924
-0.00152548
-0.000140335
-0.00093033
-0.000346011
-0.000178349
0.000573202
-0.000598649
0.00140735
-0.0011623
0.001987
-0.00179551
0.0023045
-0.00244206
0.00239768
-0.00305893
0.00230686
-0.00361179
0.00206428
-0.00407137
0.00169222
-0.004411
0.0012063
-0.00460569
0.000621149
-0.00463291
-4.30118e-05
-0.00447512
-0.000754056
-0.00412412
-0.00146295
-0.0035874
-0.00210071
-0.00289552
-0.00258025
-0.00210855
-0.0028059
-0.00131768
-0.00269421
-0.000636981
-0.00220619
-0.000181547
-0.00138576
-0.000527558
-0.000206961
0.000780162
-0.000691087
0.00189147
-0.00133546
0.00263138
-0.00205481
0.00302385
-0.00278706
0.00312993
-0.00348706
0.00300686
-0.00412017
0.00269738
-0.00465696
0.00222902
-0.00506967
0.00161901
-0.00533038
0.000881854
-0.00541105
3.76593e-05
-0.00528604
-0.000879066
-0.00493663
-0.00181235
-0.00435934
-0.00267801
-0.00357667
-0.00336292
-0.00264909
-0.00373348
-0.00168281
-0.0036605
-0.000824835
-0.00306417
-0.000236019
-0.00197457
-0.000763576
-0.000237127
0.00101729
-0.000784336
0.00243868
-0.00150832
0.00335536
-0.00231212
0.00382766
-0.00312839
0.0039462
-0.00391089
0.00378936
-0.00462589
0.00341239
-0.00524517
0.0028483
-0.00574104
0.00211488
-0.00608348
0.00122429
-0.00623924
0.000193426
-0.00617333
-0.000944986
-0.00585378
-0.00213189
-0.00526089
-0.0032709
-0.00440176
-0.00422206
-0.00332932
-0.00480591
-0.00216042
-0.00482939
-0.00107991
-0.00414467
-0.000311926
-0.00274255
-0.0010755
-0.0002703
0.00128759
-0.000880818
0.0030492
-0.00168324
0.00415779
-0.00256808
0.0047125
-0.00346316
0.00484129
-0.00432241
0.00464861
-0.00511463
0.0042046
-0.00581458
0.00354825
-0.00639666
0.00269695
-0.00683073
0.00165835
-0.00707992
0.000442617
-0.00710065
-0.000924253
-0.00684626
-0.00238628
-0.006276
-0.00384116
-0.0053724
-0.00512565
-0.00416814
-0.00601018
-0.00277889
-0.00621864
-0.00142638
-0.00549718
-0.00041844
-0.00375049
-0.00149394
-0.00030788
0.00159547
-0.000982139
0.00372346
-0.00186015
0.0050358
-0.00281822
0.00567057
-0.00377986
0.00580293
-0.00470066
0.00556941
-0.00555397
0.00505791
-0.00631996
0.00431423
-0.00697794
0.00335494
-0.00750106
0.00218148
-0.00785245
0.000794005
-0.00798311
-0.00079359
-0.00783306
-0.00253633
-0.00733789
-0.00433633
-0.00644635
-0.00601719
-0.00515357
-0.00730295
-0.00355202
-0.00782019
-0.00188649
-0.00716271
-0.000565675
-0.0050713
-0.00205961
-0.000351818
0.00194729
-0.00109039
0.00446203
-0.00203793
0.00598335
-0.00305418
0.00668681
-0.00405907
0.00680783
-0.00501197
0.00652231
-0.00589333
0.00593927
-0.00669173
0.00511264
-0.00739518
0.00405839
-0.00798478
0.00277107
-0.00842935
0.00123857
-0.00868062
-0.000542319
-0.00867077
-0.00254618
-0.00831354
-0.00469355
-0.00751787
-0.00681286
-0.00622244
-0.00859838
-0.00446346
-0.00957917
-0.00247395
-0.00915222
-0.00076389
-0.00678136
-0.0028235
-0.000405608
0.0023529
-0.00121024
0.00526666
-0.00221665
0.00698977
-0.00326523
0.00773539
-0.00427428
0.00781688
-0.00521023
0.00745826
-0.00606415
0.00679319
-0.00683672
0.00588521
-0.00752897
0.00475064
-0.00813556
0.00337767
-0.00863826
0.00174127
-0.00899829
-0.000182285
-0.00915015
-0.00239432
-0.00899394
-0.00484977
-0.00840021
-0.00740659
-0.00723674
-0.00976184
-0.00544372
-0.0113722
-0.00318081
-0.0114151
-0.00102154
-0.00894063
-0.00384504
-0.000476061
0.00282896
-0.00135225
0.00614284
-0.00240014
0.00803767
-0.00343914
0.00877439
-0.00439093
0.00876867
-0.00523506
0.00830238
-0.00597833
0.00753646
-0.00663793
0.00654481
-0.00723251
0.00534523
-0.00777585
0.00392101
-0.00827014
0.00223556
-0.00869613
0.000243707
-0.00900426
-0.00208618
-0.00909641
-0.00475762
-0.0088177
-0.0076853
-0.00796346
-0.0106161
-0.00634246
-0.0129932
-0.00395613
-0.0138015
-0.00134148
-0.0115553
-0.00518652
-0.000576615
0.00340557
-0.00153776
0.00710398
-0.00259791
0.00909782
-0.00355932
0.0097358
-0.00435959
0.00956895
-0.00500274
0.00894554
-0.00551916
0.00805288
-0.00594776
0.00697341
-0.00632893
0.0057264
-0.00669977
0.00429186
-0.00708828
0.00262407
-0.00750464
0.000660064
-0.00792724
-0.00166358
-0.00828182
-0.00440305
-0.00841402
-0.0075531
-0.00806668
-0.0109634
-0.00690328
-0.0141566
-0.00467696
-0.0160278
-0.0017139
-0.0145183
-0.00690041
-0.000733442
0.00413901
-0.00180459
0.00817513
-0.00282128
0.0101145
-0.00358928
0.0105038
-0.00409135
0.010071
-0.00437683
0.00923102
-0.0045112
0.00818724
-0.00456057
0.00702277
-0.00458971
0.00575554
-0.0046602
0.00436234
-0.00482684
0.00279071
-0.00513276
0.000965982
-0.00559409
-0.00120226
-0.00618119
-0.00381594
-0.00677665
-0.00695764
-0.00711797
-0.0106221
-0.00674995
-0.0145246
-0.00511547
-0.0176622
-0.00210092
-0.0175329
-0.00900134
-0.000990353
0.00512937
-0.00220437
0.00938915
-0.00305156
0.0109617
-0.00341252
0.0108648
-0.00338022
0.0100387
-0.00308403
0.00893483
-0.00263767
0.00774089
-0.00213648
0.00652158
-0.00166862
0.00528769
-0.00131577
0.00400949
-0.00115314
0.00262807
-0.00124998
0.00106282
-0.00166217
-0.000790065
-0.00241538
-0.00306273
-0.0034661
-0.00590692
-0.00462041
-0.00946779
-0.00538681
-0.0137582
-0.00490407
-0.018145
-0.00239487
-0.0200421
-0.0113962
-0.00139391
0.00652328
-0.00274004
0.0107353
-0.00308589
0.0113076
-0.00261867
0.0103975
-0.00167315
0.00909318
-0.000495857
0.00775754
0.000752476
0.00649255
0.00196725
0.00530681
0.00304174
0.0042132
0.00388829
0.00316294
0.00442846
0.0020879
0.00458326
0.000908028
0.00427142
-0.000478222
0.00341855
-0.00220987
0.00197736
-0.00446573
-2.24597e-05
-0.00746797
-0.0021973
-0.0115834
-0.00349789
-0.0168444
-0.00232259
-0.0212174
-0.0137188
-0.0019637
0.00848698
-0.00299971
0.0117713
-0.00188158
0.0101894
0.000185434
0.00833053
0.0025302
0.00674842
0.00485381
0.00543393
0.00701951
0.00432685
0.00898714
0.00333918
0.0106287
0.00257168
0.0118842
0.00190744
0.0127053
0.00126677
0.0130263
0.000586967
0.0127609
-0.000212789
0.0118136
-0.00126258
0.0100922
-0.00274436
0.00733073
-0.00470645
0.00362089
-0.00787355
-0.00012324
-0.0131003
-0.00144942
-0.0198912
-0.0151682
-0.00253827
0.0110253
-1.08192e-05
0.00924383
0.00456298
0.00561563
0.00886776
0.00402575
0.0126259
0.00299028
0.0158284
0.00223148
0.0184817
0.00167349
0.0205644
0.00125653
0.0221535
0.000982528
0.0233571
0.000703881
0.0241778
0.000445999
0.0245735
0.000191276
0.0244436
-8.28876e-05
0.0235799
-0.000398871
0.0216671
-0.000831538
0.0184435
-0.00148284
0.0134531
-0.0028832
0.00661404
-0.00626117
7.38146e-05
-0.013351
-0.0150944
0.0110253
0.0202691
0.0258847
0.0299105
0.0329007
0.0351322
0.0368057
0.0380622
0.0390447
0.0397486
0.0401946
0.0403859
0.040303
0.0399041
0.0390726
0.0375898
0.0347066
0.0284454
0.0150944
)
;

boundaryField
{
    movingWall
    {
        type            calculated;
        value           uniform 0;
    }
    fixedWalls
    {
        type            calculated;
        value           uniform 0;
    }
    frontAndBack
    {
        type            empty;
    }
}


// ************************************************************************* //
