/*--------------------------------*- C++ -*----------------------------------*\
  =========                 |
  \\      /  F ield         | OpenFOAM: The Open Source CFD Toolbox
   \\    /   O peration     | Website:  https://openfoam.org
    \\  /    A nd           | Version:  13
     \\/     M anipulation  |
\*---------------------------------------------------------------------------*/
FoamFile
{
    format      ascii;
    class       surfaceScalarField;
    location    "50";
    object      phi_0;
}
// * * * * * * * * * * * * * * * * * * * * * * * * * * * * * * * * * * * * * //

dimensions      [0 3 -1 0 0 0 0];

internalField   nonuniform List<scalar> 
760
(
-1.31088e-05
1.31087e-05
-5.52311e-05
4.21224e-05
-0.000130347
7.51162e-05
-0.000224932
9.45851e-05
-0.000325891
0.000100959
-0.000423257
9.73661e-05
-0.000509514
8.62573e-05
-0.000578884
6.93695e-05
-0.000626739
4.78554e-05
-0.000649379
2.26407e-05
-0.000644136
-5.24261e-06
-0.000609778
-3.43579e-05
-0.000547083
-6.26946e-05
-0.000459539
-8.75444e-05
-0.000354022
-0.000105518
-0.000241272
-0.00011275
-0.000135753
-0.000105519
-5.45707e-05
-8.11839e-05
-1.19126e-05
-4.26578e-05
-1.19117e-05
-4.56896e-05
5.87985e-05
-0.000142124
0.000138557
-0.00031502
0.000248014
-0.000533097
0.000312662
-0.000767566
0.000335427
-0.000995514
0.000325314
-0.00119914
0.000289887
-0.00136421
0.00023444
-0.00147886
0.000162504
-0.00153326
7.70435e-05
-0.00152015
-1.83512e-05
-0.00143606
-0.000118457
-0.001283
-0.000215748
-0.00107042
-0.000300126
-0.000816694
-0.000359248
-0.000549733
-0.000379714
-0.000305652
-0.0003496
-0.000124351
-0.000262485
-3.99005e-05
-0.00012711
-5.18124e-05
-8.4496e-05
0.000143295
-0.000271754
0.000325817
-0.00054953
0.000525789
-0.000877957
0.000641088
-0.00122095
0.00067842
-0.00154894
0.000653299
-0.0018384
0.000579349
-0.0020704
0.000466447
-0.00222944
0.000321547
-0.00230306
0.000150661
-0.00228237
-3.90418e-05
-0.00216342
-0.000237407
-0.00194913
-0.000430044
-0.0016515
-0.000597754
-0.0012936
-0.000717151
-0.000910367
-0.000762943
-0.000547276
-0.000712694
-0.000255064
-0.000554698
-7.91024e-05
-0.000303073
-0.000130914
-0.000117625
0.000260921
-0.000381485
0.000589676
-0.000749321
0.000893624
-0.00117003
0.0010618
-0.00160129
0.00110968
-0.00200935
0.00106136
-0.00236749
0.000937495
-0.00265417
0.00075313
-0.00285162
0.00051899
-0.00294533
0.000244376
-0.00292462
-5.97545e-05
-0.00278404
-0.000377991
-0.00252561
-0.000688469
-0.00216163
-0.000961731
-0.00171739
-0.0011614
-0.00123286
-0.00124747
-0.000762036
-0.00118351
-0.00036806
-0.000948677
-0.000113137
-0.000557995
-0.000244049
-0.00014566
0.00040658
-0.000475187
0.000919202
-0.000922685
0.00134112
-0.00142563
0.00156474
-0.00193549
0.00161954
-0.00241525
0.00154112
-0.00283627
0.00135852
-0.00317552
0.00109237
-0.00341363
0.000757096
-0.00353412
0.000364873
-0.0035238
-7.00765e-05
-0.00337429
-0.000527497
-0.00308468
-0.000978076
-0.00266518
-0.00138123
-0.00214122
-0.00168536
-0.00155689
-0.0018318
-0.000975892
-0.00176451
-0.000477505
-0.00144707
-0.000145541
-0.000889957
-0.00038959
-0.000171888
0.000578468
-0.000561568
0.00130888
-0.00108395
0.0018635
-0.00166527
0.00214606
-0.0022509
0.00220517
-0.00280104
0.00209125
-0.00328588
0.00184336
-0.00368161
0.0014881
-0.00396767
0.00104316
-0.00412551
0.000522706
-0.00413856
-5.70184e-05
-0.00399402
-0.000672037
-0.0036857
-0.00128639
-0.00321899
-0.00184794
-0.00261689
-0.00228747
-0.00192627
-0.00252242
-0.00122175
-0.00246905
-0.00060323
-0.00206559
-0.000182709
-0.00131047
-0.000572298
-0.000199151
0.000777619
-0.000648341
0.00175807
-0.0012457
0.00246086
-0.00190597
0.00280633
-0.00256849
0.00286769
-0.0031912
0.00271395
-0.00374386
0.00239602
-0.00420261
0.00194686
-0.00454624
0.00138679
-0.00475414
0.000730606
-0.00480582
-5.34449e-06
-0.00468263
-0.000795223
-0.00437067
-0.00159836
-0.0038671
-0.00235152
-0.00318871
-0.00296586
-0.00238214
-0.00332899
-0.00153273
-0.00331846
-0.000765702
-0.00283261
-0.000231091
-0.00184508
-0.000803385
-0.000229718
0.00100734
-0.000741273
0.00226963
-0.00141686
0.00313645
-0.00215874
0.00354821
-0.00290033
0.00360928
-0.00359798
0.0034116
-0.00422201
0.00302004
-0.00474955
0.0024744
-0.00515965
0.00179689
-0.00543028
0.00100124
-0.00553703
0.0001014
-0.00545457
-0.000877681
-0.00515897
-0.00189397
-0.00463525
-0.00287524
-0.0038885
-0.0037126
-0.00295937
-0.00425812
-0.00194061
-0.00433722
-0.000986186
-0.00378703
-0.00029755
-0.00253372
-0.00110093
-0.000265426
0.00127276
-0.000844317
0.00284852
-0.00160261
0.00389474
-0.00242843
0.00437403
-0.00324929
0.00443014
-0.00402094
0.00418325
-0.00471562
0.00371473
-0.00531301
0.00307179
-0.00579397
0.00227784
-0.00613652
0.00134379
-0.00631363
0.000278507
-0.00629308
-0.000898224
-0.00603976
-0.00214728
-0.00552263
-0.00339238
-0.00472803
-0.00450719
-0.00368112
-0.00530504
-0.0024734
-0.00554493
-0.00128677
-0.00497367
-0.000389625
-0.00343085
-0.00149056
-0.000308053
0.00158082
-0.000960325
0.00350079
-0.00180517
0.00473959
-0.00271417
0.00528303
-0.00360909
0.00532507
-0.00444649
0.00502065
-0.00520242
0.00447066
-0.00586125
0.00373063
-0.00640805
0.00282464
-0.00682343
0.00175917
-0.00708028
0.000535355
-0.00714147
-0.000837038
-0.00696111
-0.00232765
-0.00648934
-0.00386414
-0.00568629
-0.00531024
-0.00454833
-0.006443
-0.0031493
-0.00694396
-0.00168882
-0.00643414
-0.000515531
-0.00460414
-0.00200609
-0.000359828
0.00194064
-0.00109208
0.00423305
-0.00202479
0.00567229
-0.00300993
0.00626817
-0.00396413
0.00627927
-0.00484686
0.00590338
-0.00564062
0.00526443
-0.00633735
0.00442736
-0.00692952
0.0034168
-0.00740411
0.00223377
-0.00773792
0.000869158
-0.00789338
-0.000681564
-0.00781702
-0.00240401
-0.00744043
-0.00424074
-0.0066916
-0.00605908
-0.00552269
-0.0076119
-0.00396445
-0.00850221
-0.00220808
-0.0081905
-0.000683597
-0.00612861
-0.00268969
-0.000424181
0.00236483
-0.00124377
0.00505264
-0.0022608
0.00668932
-0.00330443
0.0073118
-0.004288
0.00726284
-0.00517739
0.00679278
-0.00596531
0.00605234
-0.0066549
0.00511695
-0.00725008
0.00401199
-0.00774885
0.00273254
-0.00813754
0.00125785
-0.00838465
-0.000434447
-0.00843608
-0.00235258
-0.00820986
-0.00446696
-0.0076009
-0.00666804
-0.00650365
-0.00870915
-0.0048731
-0.0101327
-0.00284426
-0.0102194
-0.000900896
-0.00807198
-0.00359058
-0.000507041
0.00287187
-0.00142312
0.00596872
-0.00251254
0.00777874
-0.00357955
0.00837881
-0.00453926
0.00822255
-0.00537035
0.00762387
-0.00608117
0.00676317
-0.00669085
0.00572664
-0.00721922
0.00454036
-0.00768028
0.0031936
-0.00807617
0.00165374
-0.00838935
-0.000121267
-0.00857541
-0.00216652
-0.00854977
-0.00449261
-0.00818189
-0.00703591
-0.00730328
-0.00958777
-0.00576084
-0.0116752
-0.00356333
-0.0124169
-0.00117102
-0.0104643
-0.0047616
-0.000619346
0.00349121
-0.00164483
0.0069942
-0.00277891
0.00891282
-0.00380423
0.00940413
-0.00465028
0.0090686
-0.00532034
0.00829392
-0.00584691
0.00728974
-0.00627085
0.00615058
-0.00663235
0.00490185
-0.00696554
0.00352679
-0.0072935
0.00198171
-0.00762012
0.00020535
-0.00792233
-0.00186431
-0.0081293
-0.00428564
-0.00810399
-0.00706121
-0.00762593
-0.0100658
-0.00641475
-0.0128864
-0.00427171
-0.0145599
-0.00149047
-0.0132455
-0.00625207
-0.000781798
0.00427301
-0.00193455
0.00814695
-0.00305204
0.0100303
-0.00391528
0.0102674
-0.00449791
0.00965124
-0.00484974
0.00864574
-0.00503988
0.00747989
-0.00513695
0.00624766
-0.00520434
0.00496924
-0.00529756
0.00362001
-0.00546194
0.00214609
-0.00572746
0.000470878
-0.00610031
-0.00149146
-0.00654296
-0.00384299
-0.00694198
-0.00666221
-0.00705887
-0.00994893
-0.00649719
-0.013448
-0.00478307
-0.016274
-0.0018402
-0.0161884
-0.00809227
-0.00102673
0.00529974
-0.00232681
0.00944703
-0.00328575
0.0109893
-0.00375601
0.0107376
-0.00382433
0.00971956
-0.00362448
0.00844589
-0.00327616
0.00713157
-0.00287688
0.00584838
-0.00251091
0.00460327
-0.0022503
0.00335939
-0.00215724
0.00205303
-0.00228434
0.000597978
-0.00266854
-0.00110726
-0.0033203
-0.00319123
-0.00418765
-0.00579486
-0.00507433
-0.00906226
-0.00552714
-0.0129952
-0.00477745
-0.0170237
-0.00215416
-0.0188117
-0.0102464
-0.00139163
0.00669137
-0.00281281
0.0108682
-0.00324902
0.0114255
-0.0028685
0.0103571
-0.00201674
0.0088678
-0.000951242
0.00738039
0.000161543
0.00601878
0.00121653
0.00479339
0.00212657
0.00369323
0.0028123
0.00267367
0.00320978
0.00165555
0.00325845
0.000549312
0.00290111
-0.00074993
0.00208034
-0.00237046
0.000747284
-0.00446179
-0.00102693
-0.00728805
-0.00285741
-0.0111647
-0.00374979
-0.0161314
-0.00222993
-0.0203316
-0.0124764
-0.00188947
0.00858084
-0.00299897
0.0119777
-0.00188307
0.0103096
0.00017269
0.00830133
0.00245897
0.00658152
0.00466328
0.00517609
0.00665332
0.00402874
0.00839701
0.0030497
0.00982814
0.0022621
0.0108768
0.00162498
0.0114999
0.00103249
0.0116515
0.000397688
0.0112797
-0.000378078
0.0103177
-0.00140849
0.00857094
-0.00271504
0.00589888
-0.00461599
0.00240621
-0.00767207
-0.000956126
-0.012769
-0.00165326
-0.0196344
-0.0141296
-0.00252631
0.0111071
8.37064e-05
0.0093677
0.00485409
0.00553918
0.00924614
0.00390927
0.0129767
0.00285094
0.0160529
0.00209991
0.0185197
0.00156193
0.0204012
0.00116816
0.0217698
0.000893579
0.0227478
0.000646924
0.0233771
0.000403161
0.0236049
0.000169925
0.0232969
-7.00604e-05
0.0222347
-0.00034633
0.0202286
-0.000708905
0.0169268
-0.00131419
0.0118519
-0.00259719
0.00498416
-0.00590128
-0.000964201
-0.0136861
-0.0150938
0.0111071
0.0204748
0.026014
0.0299233
0.0327742
0.0348742
0.0364361
0.0376043
0.0384978
0.0391448
0.0395479
0.0397178
0.0396478
0.0393014
0.0385925
0.0372784
0.0346812
0.0287799
0.0150938
)
;

boundaryField
{
    movingWall
    {
        type            calculated;
        value           uniform 0;
    }
    fixedWalls
    {
        type            calculated;
        value           uniform 0;
    }
    frontAndBack
    {
        type            empty;
    }
}


// ************************************************************************* //
