/*--------------------------------*- C++ -*----------------------------------*\
  =========                 |
  \\      /  F ield         | OpenFOAM: The Open Source CFD Toolbox
   \\    /   O peration     | Website:  https://openfoam.org
    \\  /    A nd           | Version:  13
     \\/     M anipulation  |
\*---------------------------------------------------------------------------*/
FoamFile
{
    format      ascii;
    class       volVectorField;
    location    "50";
    object      U;
}
// * * * * * * * * * * * * * * * * * * * * * * * * * * * * * * * * * * * * * //

dimensions      [0 1 -1 0 0 0 0];

internalField   nonuniform List<vector> 
400
(
(5.67442e-05 -5.76443e-05 0)
(-0.000360288 0.000124097 0)
(-0.00148694 0.000313274 0)
(-0.00319993 0.000444362 0)
(-0.00522389 0.000521044 0)
(-0.0073168 0.000547364 0)
(-0.00928893 0.000526337 0)
(-0.0109902 0.00046074 0)
(-0.0122954 0.00035331 0)
(-0.013098 0.000208746 0)
(-0.0133117 3.5916e-05 0)
(-0.012881 -0.000150451 0)
(-0.0117967 -0.00032925 0)
(-0.0101137 -0.000474236 0)
(-0.00796733 -0.000557753 0)
(-0.00558124 -0.000556969 0)
(-0.00326219 -0.000462715 0)
(-0.00136934 -0.000284965 0)
(-0.00022526 -6.10989e-05 0)
(9.49254e-05 9.70891e-05 0)
(-0.000104714 0.000366701 0)
(-0.00162459 0.00152602 0)
(-0.00470422 0.00282951 0)
(-0.00900932 0.00366288 0)
(-0.0139667 0.00401502 0)
(-0.0190562 0.00396702 0)
(-0.0238435 0.00359729 0)
(-0.0279686 0.00296087 0)
(-0.0311233 0.00209385 0)
(-0.033041 0.00102971 0)
(-0.0335075 -0.000183329 0)
(-0.0323888 -0.00146843 0)
(-0.0296715 -0.00271231 0)
(-0.0255062 -0.00376543 0)
(-0.0202415 -0.00445411 0)
(-0.0144337 -0.00460688 0)
(-0.0088118 -0.00410008 0)
(-0.00417844 -0.00292201 0)
(-0.00117971 -0.00128838 0)
(-4.94692e-05 -0.000183721 0)
(-0.000298207 0.00159119 0)
(-0.00319669 0.00472608 0)
(-0.00828016 0.00770295 0)
(-0.0148809 0.00958615 0)
(-0.0222362 0.0103599 0)
(-0.0296584 0.0101742 0)
(-0.0365633 0.00918784 0)
(-0.0424597 0.00752257 0)
(-0.0469302 0.00527065 0)
(-0.0496213 0.00252633 0)
(-0.0502567 -0.000577693 0)
(-0.0486684 -0.00383995 0)
(-0.044844 -0.00697371 0)
(-0.0389783 -0.00961106 0)
(-0.0315182 -0.0113357 0)
(-0.0231793 -0.0117525 0)
(-0.0149091 -0.0105983 0)
(-0.00777524 -0.00788812 0)
(-0.00268263 -0.00410692 0)
(-0.000245417 -0.00117788 0)
(-0.000474557 0.00360347 0)
(-0.00460009 0.00959077 0)
(-0.0115275 0.0145916 0)
(-0.0201714 0.0176283 0)
(-0.0295913 0.0187669 0)
(-0.0389724 0.0182686 0)
(-0.0476382 0.016396 0)
(-0.0550202 0.0133545 0)
(-0.0606338 0.00930599 0)
(-0.0640647 0.00441716 0)
(-0.064981 -0.00108281 0)
(-0.0631669 -0.00685296 0)
(-0.0585757 -0.0124114 0)
(-0.0513939 -0.0171383 0)
(-0.0421038 -0.0203258 0)
(-0.0315233 -0.0212904 0)
(-0.020784 -0.0195573 0)
(-0.0112303 -0.0151007 0)
(-0.00406176 -0.008623 0)
(-0.000438246 -0.00293163 0)
(-0.000631406 0.00629084 0)
(-0.00582742 0.015969 0)
(-0.0144403 0.0233325 0)
(-0.024951 0.0276116 0)
(-0.0362502 0.0290609 0)
(-0.0474129 0.0281062 0)
(-0.057701 0.0251384 0)
(-0.0665012 0.020456 0)
(-0.0732857 0.0142913 0)
(-0.0775895 0.00688083 0)
(-0.079017 -0.00145323 0)
(-0.0772764 -0.0102296 0)
(-0.0722395 -0.0187594 0)
(-0.064024 -0.0261387 0)
(-0.0530871 -0.0313076 0)
(-0.0403067 -0.0332038 0)
(-0.0270009 -0.03103 0)
(-0.014855 -0.0246151 0)
(-0.00544114 -0.0148116 0)
(-0.000656664 -0.00538275 0)
(-0.000771039 0.00957139 0)
(-0.00695188 0.0237125 0)
(-0.0171374 0.0337747 0)
(-0.0294122 0.0393894 0)
(-0.0425019 0.0411081 0)
(-0.0553854 0.0395859 0)
(-0.067284 0.0353729 0)
(-0.0775616 0.0288668 0)
(-0.0856643 0.0203619 0)
(-0.0910805 0.010146 0)
(-0.0933389 -0.00138798 0)
(-0.0920394 -0.0136378 0)
(-0.0869196 -0.0257136 0)
(-0.0779586 -0.0364034 0)
(-0.0655134 -0.0442258 0)
(-0.0504655 -0.0476133 0)
(-0.0343125 -0.045274 0)
(-0.0191575 -0.0367176 0)
(-0.00706408 -0.0228529 0)
(-0.000937029 -0.0085755 0)
(-0.000894995 0.0134169 0)
(-0.00805021 0.032741 0)
(-0.0197473 0.0458403 0)
(-0.03374 0.0528969 0)
(-0.0485847 0.0548674 0)
(-0.0631799 0.0527069 0)
(-0.0767264 0.047158 0)
(-0.0885875 0.0387225 0)
(-0.0982 0.02774 0)
(-0.105015 0.0145188 0)
(-0.108478 -0.000517842 0)
(-0.108055 -0.0166887 0)
(-0.1033 -0.0329292 0)
(-0.0939734 -0.047713 0)
(-0.080234 -0.0590665 0)
(-0.0628693 -0.0647588 0)
(-0.0435045 -0.0627565 0)
(-0.024715 -0.0519736 0)
(-0.00921673 -0.0332057 0)
(-0.0013217 -0.0126975 0)
(-0.00100469 0.0178431 0)
(-0.00918367 0.0430291 0)
(-0.0223657 0.059502 0)
(-0.038055 0.068107 0)
(-0.0546236 0.0703229 0)
(-0.0709073 0.0674829 0)
(-0.0861107 0.060559 0)
(-0.099623 0.0501609 0)
(-0.110897 0.0366522 0)
(-0.119366 0.0203206 0)
(-0.124405 0.00156366 0)
(-0.125338 -0.0189223 0)
(-0.121494 -0.0399575 0)
(-0.112342 -0.059727 0)
(-0.097718 -0.075718 0)
(-0.0781602 -0.0848646 0)
(-0.0552845 -0.084066 0)
(-0.0321228 -0.0712096 0)
(-0.0122225 -0.0466356 0)
(-0.00185993 -0.0180935 0)
(-0.00110084 0.0228983 0)
(-0.0103975 0.054585 0)
(-0.025047 0.0747531 0)
(-0.0423971 0.0849877 0)
(-0.0606071 0.0874273 0)
(-0.078471 0.0838728 0)
(-0.095227 0.0755683 0)
(-0.110324 0.0632372 0)
(-0.12327 0.0472452 0)
(-0.133517 0.0278142 0)
(-0.140407 0.00524853 0)
(-0.143144 -0.0198271 0)
(-0.140833 -0.0462154 0)
(-0.13259 -0.0718943 0)
(-0.117797 -0.093824 0)
(-0.096529 -0.107963 0)
(-0.0701332 -0.109761 0)
(-0.0419347 -0.0954416 0)
(-0.0164463 -0.0642264 0)
(-0.0026053 -0.0252836 0)
(-0.00118523 0.0286585 0)
(-0.0117329 0.0674304 0)
(-0.027817 0.0915736 0)
(-0.0467345 0.103451 0)
(-0.0663904 0.106035 0)
(-0.0855618 0.101699 0)
(-0.103558 0.0920119 0)
(-0.119931 0.0778214 0)
(-0.134295 0.0594793 0)
(-0.146185 0.0371003 0)
(-0.154974 0.0108256 0)
(-0.159818 -0.0188965 0)
(-0.159642 -0.0509888 0)
(-0.153209 -0.0833781 0)
(-0.139341 -0.112615 0)
(-0.117395 -0.133647 0)
(-0.0880572 -0.140106 0)
(-0.0545425 -0.125702 0)
(-0.022284 -0.0873626 0)
(-0.00361284 -0.0349859 0)
(-0.00126545 0.0352319 0)
(-0.013248 0.0815915 0)
(-0.030702 0.109899 0)
(-0.050991 0.123303 0)
(-0.0717138 0.12583 0)
(-0.0916663 0.120561 0)
(-0.110277 0.109449 0)
(-0.127259 0.0934859 0)
(-0.142396 0.0730061 0)
(-0.155386 0.0479894 0)
(-0.16574 0.0183544 0)
(-0.172679 -0.015735 0)
(-0.175069 -0.0534914 0)
(-0.171398 -0.093028 0)
(-0.159902 -0.13075 0)
(-0.138998 -0.160761 0)
(-0.108214 -0.174668 0)
(-0.0699414 -0.162704 0)
(-0.0301094 -0.117631 0)
(-0.00493524 -0.0481326 0)
(-0.00136443 0.042778 0)
(-0.0150528 0.0971093 0)
(-0.0337743 0.129593 0)
(-0.0550833 0.144177 0)
(-0.0762245 0.146243 0)
(-0.0960743 0.139736 0)
(-0.114252 0.127063 0)
(-0.130701 0.10939 0)
(-0.145453 0.0870451 0)
(-0.158469 0.0598692 0)
(-0.169518 0.0275235 0)
(-0.17805 -0.0102027 0)
(-0.183056 -0.0529905 0)
(-0.182937 -0.0994409 0)
(-0.175456 -0.14624 0)
(-0.157995 -0.187109 0)
(-0.128432 -0.211799 0)
(-0.0873417 -0.20627 0)
(-0.0401424 -0.156547 0)
(-0.00661971 -0.0658589 0)
(-0.001539 0.0515553 0)
(-0.0173673 0.114075 0)
(-0.0372163 0.15042 0)
(-0.0589569 0.165462 0)
(-0.0794735 0.166345 0)
(-0.0978462 0.158066 0)
(-0.113999 0.143553 0)
(-0.128201 0.124177 0)
(-0.140819 0.100282 0)
(-0.152176 0.0715921 0)
(-0.16243 0.037514 0)
(-0.171423 -0.00258433 0)
(-0.178509 -0.0490104 0)
(-0.18229 -0.101157 0)
(-0.180349 -0.156547 0)
(-0.169177 -0.20931 0)
(-0.144718 -0.24812 0)
(-0.10463 -0.254521 0)
(-0.0521946 -0.204958 0)
(-0.00870477 -0.0894296 0)
(-0.00191445 0.0620151 0)
(-0.0206194 0.1327 0)
(-0.0413991 0.171985 0)
(-0.0625795 0.186157 0)
(-0.0808162 0.184685 0)
(-0.0956463 0.173812 0)
(-0.107495 0.15702 0)
(-0.117085 0.13589 0)
(-0.125213 0.110809 0)
(-0.132642 0.081419 0)
(-0.140012 0.0469078 0)
(-0.147705 0.00623582 0)
(-0.155647 -0.0415974 0)
(-0.162971 -0.0970168 0)
(-0.16756 -0.158949 0)
(-0.165499 -0.222989 0)
(-0.150934 -0.278239 0)
(-0.117764 -0.302956 0)
(-0.0652391 -0.261974 0)
(-0.0112026 -0.120049 0)
(-0.00273988 0.0749781 0)
(-0.0256021 0.153405 0)
(-0.0469212 0.193564 0)
(-0.0657485 0.204584 0)
(-0.0789989 0.198999 0)
(-0.0871845 0.18442 0)
(-0.091561 0.16482 0)
(-0.0934701 0.141922 0)
(-0.0942163 0.116142 0)
(-0.0950407 0.087063 0)
(-0.0970783 0.0537077 0)
(-0.101287 0.0147032 0)
(-0.108281 -0.0315624 0)
(-0.118011 -0.0866264 0)
(-0.129223 -0.151202 0)
(-0.13843 -0.223439 0)
(-0.138781 -0.295022 0)
(-0.120253 -0.343802 0)
(-0.0767201 -0.323435 0)
(-0.0139929 -0.158447 0)
(-0.00443152 0.0920202 0)
(-0.0335765 0.176927 0)
(-0.0543003 0.21368 0)
(-0.0671494 0.217793 0)
(-0.0707354 0.205694 0)
(-0.0675528 0.186199 0)
(-0.060164 0.163437 0)
(-0.050661 0.139037 0)
(-0.0408529 0.113359 0)
(-0.0324009 0.0859084 0)
(-0.0268215 0.055572 0)
(-0.0255044 0.0207674 0)
(-0.0296811 -0.0205239 0)
(-0.0402052 -0.0707373 0)
(-0.0571412 -0.132342 0)
(-0.0785229 -0.20671 0)
(-0.0980815 -0.290558 0)
(-0.102807 -0.366078 0)
(-0.0813613 -0.380394 0)
(-0.0163634 -0.204174 0)
(-0.00747931 0.116604 0)
(-0.0456741 0.203937 0)
(-0.0617653 0.228226 0)
(-0.0604861 0.219713 0)
(-0.0460942 0.198567 0)
(-0.0246377 0.173653 0)
(-0.000251365 0.14832 0)
(0.0244758 0.123526 0)
(0.0475042 0.0995685 0)
(0.0669714 0.0756455 0)
(0.0812893 0.0504868 0)
(0.0889719 0.0224757 0)
(0.0884963 -0.0104873 0)
(0.0783815 -0.0512333 0)
(0.0571865 -0.103348 0)
(0.024292 -0.170938 0)
(-0.0169944 -0.257796 0)
(-0.0529753 -0.356671 0)
(-0.0691925 -0.418665 0)
(-0.0156498 -0.255044 0)
(-0.0130898 0.157832 0)
(-0.05907 0.233443 0)
(-0.054049 0.227617 0)
(-0.0202066 0.199912 0)
(0.0246788 0.169463 0)
(0.0716898 0.141215 0)
(0.116615 0.115973 0)
(0.157949 0.0929946 0)
(0.194091 0.0722679 0)
(0.223195 0.0540731 0)
(0.244341 0.0364874 0)
(0.256476 0.0178209 0)
(0.258187 -0.00387354 0)
(0.247921 -0.0312595 0)
(0.223669 -0.0674527 0)
(0.181543 -0.117735 0)
(0.118844 -0.192851 0)
(0.0458724 -0.302153 0)
(-0.024687 -0.419113 0)
(-0.00467748 -0.307777 0)
(-0.0174304 0.213178 0)
(-0.0402834 0.24209 0)
(0.0441669 0.177756 0)
(0.134139 0.135842 0)
(0.214715 0.104761 0)
(0.28403 0.0807907 0)
(0.34219 0.0621224 0)
(0.390914 0.0469812 0)
(0.425525 0.037547 0)
(0.454055 0.0282686 0)
(0.474783 0.0193297 0)
(0.487441 0.0101322 0)
(0.490892 -0.000265792 0)
(0.482913 -0.0134117 0)
(0.456787 -0.0325894 0)
(0.409732 -0.0577391 0)
(0.331676 -0.105469 0)
(0.221349 -0.204921 0)
(0.0661102 -0.366167 0)
(0.0421859 -0.316325 0)
(0.24641 0.110039 0)
(0.323149 0.10072 0)
(0.458909 0.0624588 0)
(0.560828 0.0418318 0)
(0.63113 0.0297263 0)
(0.682427 0.0217858 0)
(0.720768 0.0163676 0)
(0.749608 0.0125671 0)
(0.771614 0.00950156 0)
(0.788233 0.00701441 0)
(0.7997 0.00500907 0)
(0.806162 0.0033349 0)
(0.807443 0.0018259 0)
(0.802956 0.000397459 0)
(0.791121 -0.00122494 0)
(0.768954 -0.00370372 0)
(0.726213 -0.00900262 0)
(0.64844 -0.0200076 0)
(0.477241 -0.0650248 0)
(0.306314 -0.119409 0)
)
;

boundaryField
{
    movingWall
    {
        type            fixedValue;
        value           uniform (1 0 0);
    }
    fixedWalls
    {
        type            fixedValue;
        value           uniform (0 0 0);
    }
    frontAndBack
    {
        type            empty;
    }
}


// ************************************************************************* //
